 vasp.6.4.3 19Mar24 (build Apr 23 2024 16:09:24) complex                        
  
 executed on             LinuxIFC date 2025.06.06  16:06:55
 running    4 mpi-ranks, on    1 nodes
 distrk:  each k-point on    2 cores,    2 groups
 distr:  one band on NCORE=   2 cores,    1 groups


--------------------------------------------------------------------------------------------------------


 INCAR:
   SYSTEM = CoSi
   ISTART = 0
   ICHARG = 2
   LOPTICS = .TRUE.
   NBANDS = 422
   LPEAD = .FALSE.
   PREC = Normal
   GGA = PE
   IVDW = 11
   ALGO = A
   LREAL = Auto
   IBRION = 2
   ISIF = 2
   NSW = 0
   EDIFF = 1.0E-07
   EDIFFG = -0.05
   NELM = 999
   LCHARG = .FALSE.
   LWAVE = .FALSE.
   LVTOT = .FALSE.
   ISMEAR = 0
   SIGMA = 0.01
   NCORE = 2
   KPAR = 2
   LNONCOLLINEAR = .TRUE.
   NUPDOWN = 0
   LSORBIT = .TRUE.
   SAXIS = 0 0 1
   GGA_COMPAT = .FALSE.

 POTCAR:    PAW_PBE Co_pv 23Apr2009               
 POTCAR:    PAW_PBE Si 05Jan2001                  
 -----------------------------------------------------------------------------
|                                                                             |
|           W    W    AA    RRRRR   N    N  II  N    N   GGGG   !!!           |
|           W    W   A  A   R    R  NN   N  II  NN   N  G    G  !!!           |
|           W    W  A    A  R    R  N N  N  II  N N  N  G       !!!           |
|           W WW W  AAAAAA  RRRRR   N  N N  II  N  N N  G  GGG   !            |
|           WW  WW  A    A  R   R   N   NN  II  N   NN  G    G                |
|           W    W  A    A  R    R  N    N  II  N    N   GGGG   !!!           |
|                                                                             |
|     You use a magnetic or noncollinear calculation, but did not specify     |
|     the initial magnetic moment with the MAGMOM tag. Note that a            |
|     default of 0 will be used for all atoms. This ferromagnetic setup       |
|     may break the symmetry of the crystal, in particular it may rule        |
|     out finding an antiferromagnetic solution. Thence, we recommend         |
|     setting the initial magnetic moment manually or verifying carefully     |
|     that this magnetic setup is desired.                                    |
|                                                                             |
 -----------------------------------------------------------------------------

 POTCAR:    PAW_PBE Co_pv 23Apr2009               
   SHA256 =  3976ceda5ffbe51ec93a685baffd6f73dbb9ab174e5bb5a29ab07fb1a961362f Co_pv/POTCAR          
   COPYR  = (c) Copyright 23Apr2009 Georg Kresse                                                    
   COPYR  = This file is part of the software VASP. Any use, copying, and all other rights are regul
   COPYR  = If you do not have a valid VASP license, you may not use, copy or distribute this file. 
   VRHFIN =Co: 3pd7s1                                                                               
   LEXCH  = PE                                                                                      
   EATOM  =  2948.1334 eV,  216.6817 Ry                                                             
                                                                                                    
   TITEL  = PAW_PBE Co_pv 23Apr2009                                                                 
   LULTRA =        F    use ultrasoft PP ?                                                          
   IUNSCR =        1    unscreen: 0-lin 1-nonlin 2-no                                               
   RPACOR =    2.000    partial core radius                                                         
   POMASS =   58.933; ZVAL   =   15.000    mass and valenz                                          
   RCORE  =    2.300    outmost cutoff radius                                                       
   RWIGS  =    2.460; RWIGS  =    1.302    wigner-seitz radius (au A)                               
   ENMAX  =  271.042; ENMIN  =  203.281 eV                                                          
   ICORE  =        3    local potential                                                             
   LCOR   =        T    correct aug charges                                                         
   LPAW   =        T    paw PP                                                                      
   EAUG   =  543.066                                                                                
   DEXC   =    0.000                                                                                
   RMAX   =    2.360    core radius for proj-oper                                                   
   RAUG   =    1.300    factor for augmentation sphere                                              
   RDEP   =    2.393    radius for radial grids                                                     
   RDEPT  =    1.841    core radius for aug-charge                                                  
                                                                                                    
   Atomic configuration                                                                             
    8 entries                                                                                       
     n  l   j            E        occ.                                                              
     1  0  0.50     -7587.6674   2.0000                                                             
     2  0  0.50      -893.6084   2.0000                                                             
     2  1  1.50      -764.5805   6.0000                                                             
     3  0  0.50       -97.5973   2.0000                                                             
     3  1  1.50       -60.9648   6.0000                                                             
     3  2  2.50        -4.2382   8.0000                                                             
     4  0  0.50        -4.3746   1.0000                                                             
     4  3  2.50        -1.3606   0.0000                                                             
   Description                                                                                      
     l       E           TYP  RCUT    TYP  RCUT                                                     
     1    -60.9647990     23  2.000                                                                 
     1     -5.4423304     23  2.000                                                                 
     2     -4.2382362     23  2.300                                                                 
     2     -5.5988188     23  2.300                                                                 
     0     -4.3745797     23  2.300                                                                 
     0      5.7660125     23  2.300                                                                 
     3     -1.3605826     23  2.300                                                                 
  local pseudopotential read in
  partial core-charges read in
  partial kinetic energy density read in
  atomic valenz-charges read in
  non local Contribution for L=           1  read in
    real space projection operators read in
  non local Contribution for L=           1  read in
    real space projection operators read in
  non local Contribution for L=           2  read in
    real space projection operators read in
  non local Contribution for L=           2  read in
    real space projection operators read in
  non local Contribution for L=           0  read in
    real space projection operators read in
  non local Contribution for L=           0  read in
    real space projection operators read in
    PAW grid and wavefunctions read in
 
   number of l-projection  operators is LMAX  =           6
   number of lm-projection operators is LMMAX =          18
 
 POTCAR:    PAW_PBE Si 05Jan2001                  
   SHA256 =  79d9987ad8750f624c4d6acb2a16d13abf6a777132adc04dc6c8399be72b42bb Si/POTCAR             
   COPYR  = (c) Copyright 05Jan2001 Georg Kresse                                                    
   COPYR  = This file is part of the software VASP. Any use, copying, and all other rights are regul
   COPYR  = If you do not have a valid VASP license, you may not use, copy or distribute this file. 
   VRHFIN =Si: s2p2                                                                                 
   LEXCH  = PE                                                                                      
   EATOM  =   103.0669 eV,    7.5752 Ry                                                             
                                                                                                    
   TITEL  = PAW_PBE Si 05Jan2001                                                                    
   LULTRA =        F    use ultrasoft PP ?                                                          
   IUNSCR =        1    unscreen: 0-lin 1-nonlin 2-no                                               
   RPACOR =    1.500    partial core radius                                                         
   POMASS =   28.085; ZVAL   =    4.000    mass and valenz                                          
   RCORE  =    1.900    outmost cutoff radius                                                       
   RWIGS  =    2.480; RWIGS  =    1.312    wigner-seitz radius (au A)                               
   ENMAX  =  245.345; ENMIN  =  184.009 eV                                                          
   ICORE  =        2    local potential                                                             
   LCOR   =        T    correct aug charges                                                         
   LPAW   =        T    paw PP                                                                      
   EAUG   =  322.069                                                                                
   DEXC   =    0.000                                                                                
   RMAX   =    1.950    core radius for proj-oper                                                   
   RAUG   =    1.300    factor for augmentation sphere                                              
   RDEP   =    1.993    radius for radial grids                                                     
   RDEPT  =    1.837    core radius for aug-charge                                                  
                                                                                                    
   Atomic configuration                                                                             
    6 entries                                                                                       
     n  l   j            E        occ.                                                              
     1  0  0.50     -1785.8828   2.0000                                                             
     2  0  0.50      -139.4969   2.0000                                                             
     2  1  1.50       -95.5546   6.0000                                                             
     3  0  0.50       -10.8127   2.0000                                                             
     3  1  0.50        -4.0811   2.0000                                                             
     3  2  1.50        -4.0817   0.0000                                                             
   Description                                                                                      
     l       E           TYP  RCUT    TYP  RCUT                                                     
     0    -10.8127223     23  1.900                                                                 
     0     -7.6451159     23  1.900                                                                 
     1     -4.0811372     23  1.900                                                                 
     1      2.4879257     23  1.900                                                                 
     2     -4.0817478      7  1.900                                                                 
  local pseudopotential read in
  partial core-charges read in
  partial kinetic energy density read in
  atomic valenz-charges read in
  non local Contribution for L=           0  read in
    real space projection operators read in
  non local Contribution for L=           0  read in
    real space projection operators read in
  non local Contribution for L=           1  read in
    real space projection operators read in
  non local Contribution for L=           1  read in
    real space projection operators read in
    PAW grid and wavefunctions read in
 
   number of l-projection  operators is LMAX  =           4
   number of lm-projection operators is LMMAX =           8
 
 -----------------------------------------------------------------------------
|                                                                             |
|               ----> ADVICE to this user running VASP <----                  |
|                                                                             |
|     You have a (more or less) 'small supercell' and for smaller cells       |
|     it is recommended to use the reciprocal-space projection scheme!        |
|     The real-space optimization is not efficient for small cells and it     |
|     is also less accurate ...                                               |
|     Therefore, set LREAL=.FALSE. in the INCAR file.                         |
|                                                                             |
 -----------------------------------------------------------------------------

 Optimization of the real space projectors (new method)

 maximal supplied QI-value         = 16.25
 optimisation between [QCUT,QGAM] = [  8.29, 16.74] = [ 19.24, 78.46] Ry 
 Optimized for a Real-space Cutoff    1.53 Angstroem

   l    n(q)    QCUT    max X(q) W(low)/X(q) W(high)/X(q)  e(spline) 
   1      7     8.288     4.946    0.25E-03    0.45E-03    0.25E-06
   1      7     8.288     5.991    0.32E-03    0.77E-03    0.34E-06
   2      7     8.288    46.947    0.29E-03    0.34E-03    0.18E-06
   2      7     8.288    42.928    0.29E-03    0.37E-03    0.18E-06
   0      8     8.288    68.324    0.15E-03    0.22E-03    0.51E-07
   0      8     8.288    36.926    0.14E-03    0.20E-03    0.48E-07
 Optimization of the real space projectors (new method)

 maximal supplied QI-value         = 19.84
 optimisation between [QCUT,QGAM] = [  8.33, 16.87] = [ 19.45, 79.66] Ry 
 Optimized for a Real-space Cutoff    1.49 Angstroem

   l    n(q)    QCUT    max X(q) W(low)/X(q) W(high)/X(q)  e(spline) 
   0      7     8.334   159.560    0.13E-03    0.12E-03    0.14E-06
   0      7     8.334   115.863    0.13E-03    0.11E-03    0.14E-06
   1      7     8.334    88.339    0.29E-03    0.66E-03    0.95E-07
   1      7     8.334    48.592    0.28E-03    0.64E-03    0.96E-07
  PAW_PBE Co_pv 23Apr2009               :
 energy of atom  1       EATOM=-2948.1334
 kinetic energy error for atom=    0.0845 (will be added to EATOM!!)
  PAW_PBE Si 05Jan2001                  :
 energy of atom  2       EATOM= -103.0669
 kinetic energy error for atom=    0.0034 (will be added to EATOM!!)
 
 
 POSCAR: blebleble
  positions in direct lattice
  No initial velocities read in
 IVDW         = 11
 VDW_S6       =    1.0000
 VDW_S8       =    0.7220
 VDW_SR       =    1.2170
 VDW_RADIUS   =   50.2022 A
 VDW_CNRADIUS =   21.1671 A


 exchange-correlation table for PE
   RHO(1)=    0.500       N(1)  =     2000
   RHO(2)=  100.500       N(2)  =     4000
 


--------------------------------------------------------------------------------------------------------


 ion  position               nearest neighbor table
   1  0.854  0.646  0.354-   5 2.30   8 2.31   7 2.31   6 2.31   7 2.40   6 2.40   8 2.40   4 2.70
                             2 2.70   3 2.70   3 2.70   2 2.70   4 2.70
   2  0.646  0.354  0.854-   6 2.30   8 2.31   5 2.31   7 2.31   5 2.40   7 2.40   8 2.40   4 2.70
                             1 2.70   3 2.70   3 2.70   1 2.70   4 2.70
   3  0.354  0.854  0.646-   7 2.30   8 2.31   6 2.31   5 2.31   6 2.40   5 2.40   8 2.40   4 2.70
                             2 2.70   2 2.70   1 2.70   1 2.70   4 2.70
   4  0.146  0.146  0.146-   8 2.30   6 2.31   7 2.31   5 2.31   5 2.40   6 2.40   7 2.40   2 2.70
                             3 2.70   1 2.70   3 2.70   1 2.70   2 2.70
   5  0.157  0.343  0.657-   1 2.30   4 2.31   2 2.31   3 2.31   2 2.40   3 2.40   4 2.40   8 2.71
                             7 2.71   6 2.71   8 2.71   7 2.71   6 2.71
   6  0.343  0.657  0.157-   2 2.30   4 2.31   3 2.31   1 2.31   3 2.40   1 2.40   4 2.40   8 2.71
                             7 2.71   5 2.71   8 2.71   7 2.71   5 2.71
   7  0.657  0.157  0.343-   3 2.30   4 2.31   1 2.31   2 2.31   1 2.40   2 2.40   4 2.40   8 2.71
                             6 2.71   5 2.71   8 2.71   6 2.71   5 2.71
   8  0.843  0.843  0.843-   4 2.30   2 2.31   3 2.31   1 2.31   2 2.40   1 2.40   3 2.40   5 2.71
                             6 2.71   7 2.71   6 2.71   7 2.71   5 2.71
 
  LATTYP: Found a simple cubic cell.
 ALAT       =     4.3831167221
  
  Lattice vectors:
  
 A1 = (   4.3831167221,   0.0000000000,   0.0000000000)
 A2 = (   0.0000000000,   4.3831167221,   0.0000000000)
 A3 = (   0.0000000000,   0.0000000000,   4.3831167221)


Analysis of symmetry for initial positions (statically):
=====================================================================
 Subroutine PRICEL returns:
 Original cell was already a primitive cell.
 

 Routine SETGRP: Setting up the symmetry group for a 
 simple cubic supercell.


 Subroutine GETGRP returns: Found 12 space group operations
 (whereof  3 operations were pure point group operations)
 out of a pool of 48 trial point group operations.


The static configuration has the point symmetry C_3 .
 The point group associated with its full space group is T   .


Analysis of symmetry for dynamics (positions and initial velocities):
=====================================================================
 Subroutine PRICEL returns:
 Original cell was already a primitive cell.
 

 Routine SETGRP: Setting up the symmetry group for a 
 simple cubic supercell.


 Subroutine GETGRP returns: Found 12 space group operations
 (whereof  3 operations were pure point group operations)
 out of a pool of 48 trial point group operations.


The dynamic configuration has the point symmetry C_3 .
 The point group associated with its full space group is T   .


Analysis of structural, dynamic, and magnetic symmetry:
=====================================================================
 Subroutine PRICEL returns:
 Original cell was already a primitive cell.
 

 Routine SETGRP: Setting up the symmetry group for a 
 simple cubic supercell.


 Subroutine GETGRP returns: Found 12 space group operations
 (whereof  3 operations were pure point group operations)
 out of a pool of 48 trial point group operations.


The overall configuration has the point symmetry C_3 .
 The point group associated with its full space group is T   .


 Subroutine INISYM returns: Found 12 space group operations
 (whereof  3 operations are pure point group operations),
 and found     1 'primitive' translations


----------------------------------------------------------------------------------------

                                     Primitive cell                                     

  volume of cell :      84.2072

  direct lattice vectors                    reciprocal lattice vectors
     4.383116722  0.000000000  0.000000000     0.228148157  0.000000000  0.000000000
     0.000000000  4.383116722  0.000000000     0.000000000  0.228148157  0.000000000
     0.000000000  0.000000000  4.383116722     0.000000000  0.000000000  0.228148157

  length of vectors
     4.383116722  4.383116722  4.383116722     0.228148157  0.228148157  0.228148157

  position of ions in fractional coordinates (direct lattice)
     0.854097009  0.645902991  0.354097009
     0.645902991  0.354097009  0.854097009
     0.354097009  0.854097009  0.645902991
     0.145903006  0.145903006  0.145903006
     0.156538993  0.343461007  0.656539023
     0.343461007  0.656539023  0.156538993
     0.656539023  0.156538993  0.343461007
     0.843460977  0.843460977  0.843460977

  ion indices of the primitive-cell ions
   primitive index   ion index
                 1           1
                 2           2
                 3           3
                 4           4
                 5           5
                 6           6
                 7           7
                 8           8

----------------------------------------------------------------------------------------

 
 
 KPOINTS: Automatically generated mesh            

Read explicit list of k-points.

 Found     17 k-points:

 Following reciprocal coordinates:
            Coordinates               Weight
  0.000000  0.000000  0.000000      0.008000
  0.033333  0.000000  0.000000      0.000000
  0.066667  0.033333  0.000000      0.000000
  0.200000  0.000000  0.000000      0.048000
  0.400000  0.000000  0.000000      0.048000
  0.200000  0.200000  0.000000      0.096000
  0.400000  0.200000  0.000000      0.096000
 -0.200000  0.400000  0.000000      0.096000
  0.400000  0.400000  0.000000      0.096000
  0.200000  0.200000  0.200000      0.032000
 -0.200000 -0.200000 -0.200000      0.032000
  0.400000  0.200000  0.200000      0.096000
 -0.400000 -0.200000 -0.200000      0.096000
  0.400000  0.400000  0.200000      0.096000
 -0.400000 -0.400000 -0.200000      0.096000
  0.400000  0.400000  0.400000      0.032000
 -0.400000 -0.400000 -0.400000      0.032000

 Following cartesian coordinates:
            Coordinates               Weight
  0.000000  0.000000  0.000000      0.008000
  0.007605  0.000000  0.000000      0.000000
  0.015210  0.007605  0.000000      0.000000
  0.045630  0.000000  0.000000      0.048000
  0.091259  0.000000  0.000000      0.048000
  0.045630  0.045630  0.000000      0.096000
  0.091259  0.045630  0.000000      0.096000
 -0.045630  0.091259  0.000000      0.096000
  0.091259  0.091259  0.000000      0.096000
  0.045630  0.045630  0.045630      0.032000
 -0.045630 -0.045630 -0.045630      0.032000
  0.091259  0.045630  0.045630      0.096000
 -0.091259 -0.045630 -0.045630      0.096000
  0.091259  0.091259  0.045630      0.096000
 -0.091259 -0.091259 -0.045630      0.096000
  0.091259  0.091259  0.091259      0.032000
 -0.091259 -0.091259 -0.091259      0.032000
 


--------------------------------------------------------------------------------------------------------




 Dimension of arrays:
   k-points           NKPTS =     17   k-points in BZ     NKDIM =     17   number of bands    NBANDS=    422
   number of dos      NEDOS =    301   number of ions     NIONS =      8
   non local maximal  LDIM  =      6   non local SUM 2l+1 LMDIM =     18
   total plane-waves  NPLWV =   5832
   max r-space proj   IRMAX =   1098   max aug-charges    IRDMAX=   2515
   dimension x,y,z NGX =    18 NGY =   18 NGZ =   18
   dimension x,y,z NGXF=    36 NGYF=   36 NGZF=   36
   support grid    NGXF=    36 NGYF=   36 NGZF=   36
   ions per type =               4   4
   NGX,Y,Z   is equivalent  to a cutoff of   6.83,  6.83,  6.83 a.u.
   NGXF,Y,Z  is equivalent  to a cutoff of  13.65, 13.65, 13.65 a.u.

 SYSTEM =  CoSi                                    
 POSCAR =  blebleble                               

 Startparameter for this run:
   NWRITE =      2    write-flag & timer
   PREC   = normal    normal or accurate (medium, high low for compatibility)
   ISTART =      0    job   : 0-new  1-cont  2-samecut
   ICHARG =      2    charge: 1-file 2-atom 10-const
   ISPIN  =      1    spin polarized calculation?
   LNONCOLLINEAR =      T non collinear calculations
   LSORBIT =      T    spin-orbit coupling
   INIWAV =      1    electr: 0-lowe 1-rand  2-diag
   LASPH  =      F    aspherical Exc in radial PAW
 Electronic Relaxation 1
   ENCUT  =  271.0 eV  19.92 Ry    4.46 a.u.   5.88  5.88  5.88*2*pi/ulx,y,z
   ENINI  =  271.0     initial cutoff
   ENAUG  =  543.1 eV  augmentation charge cutoff
   NELM   =    999;   NELMIN=  2; NELMDL= -5     # of ELM steps 
   EDIFF  = 0.1E-06   stopping-criterion for ELM
   LREAL  =      T    real-space projection
   NLSPLINE    = F    spline interpolate recip. space projectors
   LCOMPAT=      F    compatible to vasp.4.4
   GGA_COMPAT  = F    GGA compatible to vasp.4.4-vasp.4.6
   LMAXPAW     = -100 max onsite density
   LMAXMIX     =    2 max onsite mixed and CHGCAR
   VOSKOWN=      0    Vosko Wilk Nusair interpolation
   ROPT   =   -0.00050  -0.00050
 Ionic relaxation
   EDIFFG = -.5E-01   stopping-criterion for IOM
   NSW    =      0    number of steps for IOM
   NBLOCK =      1;   KBLOCK =      1    inner block; outer block 
   IBRION =     -1    ionic relax: 0-MD 1-quasi-New 2-CG
   NFREE  =      1    steps in history (QN), initial steepest desc. (CG)
   ISIF   =      2    stress and relaxation
   IWAVPR =     10    prediction:  0-non 1-charg 2-wave 3-comb
   ISYM   =      2    0-nonsym 1-usesym 2-fastsym
   LCORR  =      T    Harris-Foulkes like correction to forces

   POTIM  = 0.5000    time-step for ionic-motion
   TEIN   =    0.0    initial temperature
   TEBEG  =    0.0;   TEEND  =   0.0 temperature during run
   SMASS  =  -3.00    Nose mass-parameter (am)
   estimated Nose-frequenzy (Omega)   =  0.10E-29 period in steps = 0.13E+47 mass=  -0.439E-27a.u.
   SCALEE = 1.0000    scale energy and forces
   NPACO  =    256;   APACO  = 10.0  distance and # of slots for P.C.
   PSTRESS=    0.0 pullay stress

  Mass of Ions in am
   POMASS =  58.93 28.09
  Ionic Valenz
   ZVAL   =  15.00  4.00
  Atomic Wigner-Seitz radii
   RWIGS  =  -1.00 -1.00
  virtual crystal weights 
   VCA    =   1.00  1.00
   NELECT =      76.0000    total number of electrons
   NUPDOWN=       0.0000    fix difference up-down

 DOS related values:
   EMIN   =  10.00;   EMAX   =-10.00  energy-range for DOS
   EFERMI =   0.00;   METHOD = LEGACY      
   ISMEAR =     0;   SIGMA  =   0.01  broadening in eV -4-tet -1-fermi 0-gaus

 Electronic relaxation 2 (details)
   IALGO  =     58    algorithm
   LDIAG  =      T    sub-space diagonalisation (order eigenvalues)
   LSUBROT=      F    optimize rotation matrix (better conditioning)
   TURBO    =      0    0=normal 1=particle mesh
   IRESTART =      0    0=no restart 2=restart with 2 vectors
   NREBOOT  =      0    no. of reboots
   NMIN     =      0    reboot dimension
   EREF     =   0.00    reference energy to select bands
   IMIX   =      4    mixing-type and parameters
     AMIX     =   0.40;   BMIX     =  1.00
     AMIX_MAG =   1.60;   BMIX_MAG =  1.00
     AMIN     =   0.10
     WC   =   100.;   INIMIX=   1;  MIXPRE=   1;  MAXMIX= -45

 Intra band minimization:
   WEIMIN = 0.0000     energy-eigenvalue tresh-hold
   EBREAK =  0.59E-10  absolut break condition
   DEPER  =   0.30     relativ break condition  

   TIME   =   0.40     timestep for ELM

  volume/ion in A,a.u.               =      10.53        71.03
  Fermi-wavevector in a.u.,A,eV,Ry     =   1.582084  2.989706 34.055262  2.502991
  Thomas-Fermi vector in A             =   2.682061
 
 Write flags
   LWAVE        =      F    write WAVECAR
   LDOWNSAMPLE  =      F    k-point downsampling of WAVECAR
   LCHARG       =      F    write CHGCAR
   LVTOT        =      F    write LOCPOT, total local potential
   LVHAR        =      F    write LOCPOT, Hartree potential only
   WRT_POTENTIAL= false  ! write potential to hdf5 file
   LELF         =      F    write electronic localiz. function (ELF)
   LORBIT       =      0    0 simple, 1 ext, 2 COOP (PROOUT), +10 PAW based schemes


 Dipole corrections
   LMONO      =      F    monopole corrections only (constant potential shift)
   LDIPOL     =      F    correct potential (dipole corrections)
   IDIPOL     =      0    1-x, 2-y, 3-z, 4-all directions 
   EPSILON    =  1.0000000 bulk dielectric constant
   LVACPOTAV  =      F  vacuum potentials using an averaging scheme for the charge density
   VACPOTFLAT =  0.1000000 required flatness to determine vacuum potential
 Exchange correlation treatment:
   GGA     = PE    functional components
   XC_C    = 1    coefficients multiplying the functional components
   LIBXC   =     F    Libxc                    
   VOSKOWN =     0    Vosko Wilk Nusair interpolation
   LHFCALC =     F    Hartree Fock is set to
   LHFONE  =     F    Hartree Fock one center treatment
   AEXX    =    0.0000 exact exchange contribution

 Parameters of functionals:
   PE:
     No parameter
 
 Van der Waals corrections
   IVDW    =    11    specifies the selected vdW correction

 Linear response parameters
   LEPSILON=     F    determine dielectric tensor
   LRPA    =     F    only Hartree local field effects (RPA)
   LNABLA  =     F    use nabla operator in PAW spheres
   LVEL    =     F    velocity operator in full k-point grid
   CSHIFT  =0.1000    complex shift for real part using Kramers Kronig
   OMEGAMAX=  -1.0    maximum frequency
   DEG_THRESHOLD= 0.2000000E-02 threshold for treating states as degnerate
   RTIME   =   -0.100 relaxation time in fs
  (WPLASMAI=    0.000 imaginary part of plasma frequency in eV, 0.658/RTIME)
   DFIELD  = 0.0000000 0.0000000 0.0000000 field for delta impulse in time
 
  Optional k-point grid parameters
   LKPOINTS_OPT  =     F    use optional k-point grid
   KPOINTS_OPT_MODE=     1    mode for optional k-point grid
 
 Orbital magnetization related:
   ORBITALMAG=     F  switch on orbital magnetization
   LCHIMAG   =     F  perturbation theory with respect to B field
   DQ        =  0.001000  dq finite difference perturbation B field
   LLRAUG    =     F  two centre corrections for induced B field
   LBONE     =     F  B-component reconstruction in AE one-centre
   LVGVCALC  =     T  calculate vGv susceptibility
   LVGVAPPL  =     F  apply vGv susceptibility instead of pGv for G=0

 Random number generation:
   RANDOM_GENERATOR = DEFAULT
   PCG_SEED         = not used


--------------------------------------------------------------------------------------------------------


 Static calculation
 charge density and potential will be updated during run
 non collinear spin polarized calculation
 Conjugate gradient for all bands (Freysoldt, et al. PRB 79, 241103 (2009))
 preconditioned conjugated gradient                                        
 perform sub-space diagonalisation
    before iterative eigenvector-optimisation
 modified Broyden-mixing scheme, WC =      100.0
 initial mixing is a Kerker type mixing with AMIX =  0.4000 and BMIX =      1.0000
 Hartree-type preconditioning will be used
 using additional bands          384
 real space projection scheme for non local part
 use partial core corrections
 no Harris-corrections to forces 
 use gradient corrections 
 use of overlap-Matrix (Vanderbilt PP)
 Gauss-broadening in eV      SIGMA  =   0.01


--------------------------------------------------------------------------------------------------------


  energy-cutoff  :      271.04
  volume of cell :       84.21
      direct lattice vectors                 reciprocal lattice vectors
     4.383116722  0.000000000  0.000000000     0.228148157  0.000000000  0.000000000
     0.000000000  4.383116722  0.000000000     0.000000000  0.228148157  0.000000000
     0.000000000  0.000000000  4.383116722     0.000000000  0.000000000  0.228148157

  length of vectors
     4.383116722  4.383116722  4.383116722     0.228148157  0.228148157  0.228148157


 
 k-points in units of 2pi/SCALE and weight: Automatically generated mesh            
   0.00000000  0.00000000  0.00000000       0.008
   0.00760494  0.00000000  0.00000000       0.000
   0.01520988  0.00760494  0.00000000       0.000
   0.04562963  0.00000000  0.00000000       0.048
   0.09125926  0.00000000  0.00000000       0.048
   0.04562963  0.04562963  0.00000000       0.096
   0.09125926  0.04562963  0.00000000       0.096
  -0.04562963  0.09125926  0.00000000       0.096
   0.09125926  0.09125926  0.00000000       0.096
   0.04562963  0.04562963  0.04562963       0.032
  -0.04562963 -0.04562963 -0.04562963       0.032
   0.09125926  0.04562963  0.04562963       0.096
  -0.09125926 -0.04562963 -0.04562963       0.096
   0.09125926  0.09125926  0.04562963       0.096
  -0.09125926 -0.09125926 -0.04562963       0.096
   0.09125926  0.09125926  0.09125926       0.032
  -0.09125926 -0.09125926 -0.09125926       0.032
 
 k-points in reciprocal lattice and weights: Automatically generated mesh            
   0.00000000  0.00000000  0.00000000       0.008
   0.03333333  0.00000000  0.00000000       0.000
   0.06666666  0.03333333  0.00000000       0.000
   0.20000000  0.00000000  0.00000000       0.048
   0.40000000  0.00000000  0.00000000       0.048
   0.20000000  0.20000000  0.00000000       0.096
   0.40000000  0.20000000  0.00000000       0.096
  -0.20000000  0.40000000  0.00000000       0.096
   0.40000000  0.40000000  0.00000000       0.096
   0.20000000  0.20000000  0.20000000       0.032
  -0.20000000 -0.20000000 -0.20000000       0.032
   0.40000000  0.20000000  0.20000000       0.096
  -0.40000000 -0.20000000 -0.20000000       0.096
   0.40000000  0.40000000  0.20000000       0.096
  -0.40000000 -0.40000000 -0.20000000       0.096
   0.40000000  0.40000000  0.40000000       0.032
  -0.40000000 -0.40000000 -0.40000000       0.032
 
 position of ions in fractional coordinates (direct lattice) 
   0.85409701  0.64590299  0.35409701
   0.64590299  0.35409701  0.85409701
   0.35409701  0.85409701  0.64590299
   0.14590301  0.14590301  0.14590301
   0.15653899  0.34346101  0.65653902
   0.34346101  0.65653902  0.15653899
   0.65653902  0.15653899  0.34346101
   0.84346098  0.84346098  0.84346098
 
 position of ions in cartesian coordinates  (Angst):
   3.74360688  2.83106820  1.55204852
   2.83106820  1.55204852  3.74360688
   1.55204852  3.74360688  2.83106820
   0.63950991  0.63950991  0.63950991
   0.68612868  1.50542968  2.87768717
   1.50542968  2.87768717  0.68612868
   2.87768717  0.68612868  1.50542968
   3.69698791  3.69698791  3.69698791
 
 Euler angles ALPHA=     0.0000000  BETA=     0.0000000

 transformation matrix from SAXIS to cartesian coordinates
 ---------------------------------------------------------
     1.0000000 m_x     0.0000000 m_y     0.0000000 m_z
     0.0000000 m_x     1.0000000 m_y     0.0000000 m_z
     0.0000000 m_x     0.0000000 m_y     1.0000000 m_z

 transformation matrix from cartesian coordinates to SAXIS
 ---------------------------------------------------------
     1.0000000 m_x     0.0000000 m_y     0.0000000 m_z
     0.0000000 m_x     1.0000000 m_y     0.0000000 m_z
     0.0000000 m_x     0.0000000 m_y     1.0000000 m_z




--------------------------------------------------------------------------------------------------------


 k-point     1 :   0.0000 0.0000 0.0000  plane waves:    1694
 k-point     2 :   0.0333 0.0000 0.0000  plane waves:    1694
 k-point     3 :   0.0667 0.0333 0.0000  plane waves:    1706
 k-point     4 :   0.2000 0.0000 0.0000  plane waves:    1680
 k-point     5 :   0.4000 0.0000 0.0000  plane waves:    1712
 k-point     6 :   0.2000 0.2000 0.0000  plane waves:    1700
 k-point     7 :   0.4000 0.2000 0.0000  plane waves:    1702
 k-point     8 :  -0.2000 0.4000 0.0000  plane waves:    1702
 k-point     9 :   0.4000 0.4000 0.0000  plane waves:    1700
 k-point    10 :   0.2000 0.2000 0.2000  plane waves:    1688
 k-point    11 :  -0.2000-0.2000-0.2000  plane waves:    1688
 k-point    12 :   0.4000 0.2000 0.2000  plane waves:    1700
 k-point    13 :  -0.4000-0.2000-0.2000  plane waves:    1700
 k-point    14 :   0.4000 0.4000 0.2000  plane waves:    1708
 k-point    15 :  -0.4000-0.4000-0.2000  plane waves:    1708
 k-point    16 :   0.4000 0.4000 0.4000  plane waves:    1734
 k-point    17 :  -0.4000-0.4000-0.4000  plane waves:    1734

 maximum and minimum number of plane-waves per node :       910      810

 maximum number of plane-waves:      1734
 maximum index in each direction: 
   IXMAX=    6   IYMAX=    6   IZMAX=    6
   IXMIN=   -6   IYMIN=   -6   IZMIN=   -6


 real space projection operators:
  total allocation   :        803.69 KBytes
  max/ min on nodes  :        401.84        401.84


 parallel 3D FFT for wavefunctions:
    minimum data exchange during FFTs selected (reduces bandwidth)
 parallel 3D FFT for charge:
    minimum data exchange during FFTs selected (reduces bandwidth)


 total amount of memory used by VASP MPI-rank0   387682. kBytes
=======================================================================

   base      :      30000. kBytes
   nonlr-proj:        635. kBytes
   fftplans  :       1658. kBytes
   grid      :       5971. kBytes
   one-center:        248. kBytes
   wavefun   :     349170. kBytes
 
     INWAV:  cpu time      0.0000: real time      0.0000
 Broyden mixing: mesh for mixing (old mesh)
   NGX = 11   NGY = 11   NGZ = 11
  (NGX  = 36   NGY  = 36   NGZ  = 36)
  gives a total of   1331 points

 initial charge density was supplied:
 charge density of overlapping atoms calculated
 number of electron      76.0000000 magnetization       0.0000000      0.0000000      0.0000000
 keeping initial charge density in first step


--------------------------------------------------------------------------------------------------------


 Maximum index for non-local projection operator          508
 Maximum index for augmentation-charges         1131 (set IRDMAX)


--------------------------------------------------------------------------------------------------------


 First call to EWALD:  gamma=   0.404
 Maximum number of real-space cells 3x 3x 3
 Maximum number of reciprocal cells 3x 3x 3

    FEWALD:  cpu time      0.0010: real time      0.0010


--------------------------------------- Ionic step        1  -------------------------------------------




--------------------------------------- Iteration      1(   1)  ---------------------------------------


    POTLOK:  cpu time      0.0472: real time      0.0473
    SETDIJ:  cpu time      0.0116: real time      0.0116
    TRIAL :  cpu time      5.8514: real time      5.8677
    CORREC:  cpu time      0.0010: real time      0.0010
    --------------------------------------------
      LOOP:  cpu time      5.9854: real time      6.0196

 eigenvalue-minimisations  : 14348
 total energy-change (2. order) : 0.3646254E+03  (-0.1448330E+04)
 number of electron      76.0000000 magnetization       0.0000000      0.0000000      0.0000000
 augmentation part       76.0000000 magnetization       0.0000000      0.0000000      0.0000000

 Free energy of the ion-electron system (eV)
  ---------------------------------------------------
  alpha Z        PSCENC =       410.60019599
  Ewald energy   TEWEN  =     -8060.73854978
  -Hartree energ DENC   =     -3659.04744896
  -exchange      EXHF   =         0.00000000
  -V(xc)+E(xc)   XCENC  =       334.28320918
  PAW double counting   =      9729.51035955   -10451.36903413
  entropy T*S    EENTRO =        -0.00044037
  eigenvalues    EBANDS =      -143.06227149
  atomic energy  EATOM  =     12204.44938069
  ---------------------------------------------------
  free energy    TOTEN  =       364.62540067 eV

  energy without entropy =      364.62584104  energy(sigma->0) =      364.62562085


--------------------------------------------------------------------------------------------------------




--------------------------------------- Iteration      1(   2)  ---------------------------------------


    TRIAL :  cpu time      6.1460: real time      6.1607
    CORREC:  cpu time      0.0010: real time      0.0010
    --------------------------------------------
      LOOP:  cpu time      6.1474: real time      6.1626

 eigenvalue-minimisations  : 15490
 total energy-change (2. order) :-0.3976357E+03  (-0.3642736E+03)
 number of electron      76.0000000 magnetization       0.0000000      0.0000000      0.0000000
 augmentation part       76.0000000 magnetization       0.0000000      0.0000000      0.0000000

 Free energy of the ion-electron system (eV)
  ---------------------------------------------------
  alpha Z        PSCENC =       410.60019599
  Ewald energy   TEWEN  =     -8060.73854978
  -Hartree energ DENC   =     -3659.04744896
  -exchange      EXHF   =         0.00000000
  -V(xc)+E(xc)   XCENC  =       334.28320918
  PAW double counting   =      9729.51035955   -10451.36903413
  entropy T*S    EENTRO =        -0.00010368
  eigenvalues    EBANDS =      -540.69829738
  atomic energy  EATOM  =     12204.44938069
  ---------------------------------------------------
  free energy    TOTEN  =       -33.01028853 eV

  energy without entropy =      -33.01018485  energy(sigma->0) =      -33.01023669


--------------------------------------------------------------------------------------------------------




--------------------------------------- Iteration      1(   3)  ---------------------------------------


    TRIAL :  cpu time      6.4819: real time      6.4980
    CORREC:  cpu time      0.0009: real time      0.0009
    --------------------------------------------
      LOOP:  cpu time      6.4831: real time      6.4992

 eigenvalue-minimisations  : 16824
 total energy-change (2. order) :-0.2756330E+02  (-0.2668512E+02)
 number of electron      76.0000000 magnetization       0.0000000      0.0000000      0.0000000
 augmentation part       76.0000000 magnetization       0.0000000      0.0000000      0.0000000

 Free energy of the ion-electron system (eV)
  ---------------------------------------------------
  alpha Z        PSCENC =       410.60019599
  Ewald energy   TEWEN  =     -8060.73854978
  -Hartree energ DENC   =     -3659.04744896
  -exchange      EXHF   =         0.00000000
  -V(xc)+E(xc)   XCENC  =       334.28320918
  PAW double counting   =      9729.51035955   -10451.36903413
  entropy T*S    EENTRO =        -0.00012649
  eigenvalues    EBANDS =      -568.26157182
  atomic energy  EATOM  =     12204.44938069
  ---------------------------------------------------
  free energy    TOTEN  =       -60.57358578 eV

  energy without entropy =      -60.57345929  energy(sigma->0) =      -60.57352253


--------------------------------------------------------------------------------------------------------




--------------------------------------- Iteration      1(   4)  ---------------------------------------


    TRIAL :  cpu time      6.3748: real time      6.3901
    CORREC:  cpu time      0.0010: real time      0.0010
    --------------------------------------------
      LOOP:  cpu time      6.3760: real time      6.3912

 eigenvalue-minimisations  : 16488
 total energy-change (2. order) :-0.1685840E+00  (-0.1684583E+00)
 number of electron      76.0000000 magnetization       0.0000000      0.0000000      0.0000000
 augmentation part       76.0000000 magnetization       0.0000000      0.0000000      0.0000000

 Free energy of the ion-electron system (eV)
  ---------------------------------------------------
  alpha Z        PSCENC =       410.60019599
  Ewald energy   TEWEN  =     -8060.73854978
  -Hartree energ DENC   =     -3659.04744896
  -exchange      EXHF   =         0.00000000
  -V(xc)+E(xc)   XCENC  =       334.28320918
  PAW double counting   =      9729.51035955   -10451.36903413
  entropy T*S    EENTRO =        -0.00012730
  eigenvalues    EBANDS =      -568.43015499
  atomic energy  EATOM  =     12204.44938069
  ---------------------------------------------------
  free energy    TOTEN  =       -60.74216975 eV

  energy without entropy =      -60.74204245  energy(sigma->0) =      -60.74210610


--------------------------------------------------------------------------------------------------------




--------------------------------------- Iteration      1(   5)  ---------------------------------------


    TRIAL :  cpu time      6.3469: real time      6.3628
    CORREC:  cpu time      0.0009: real time      0.0009
    CHARGE:  cpu time      0.0546: real time      0.0547
    --------------------------------------------
      LOOP:  cpu time      6.4026: real time      6.4186

 eigenvalue-minimisations  : 16424
 total energy-change (2. order) :-0.7577636E-04  (-0.7577301E-04)
 number of electron      75.9999950 magnetization       0.0000000      0.0000000     -0.0000000
 augmentation part       35.3922178 magnetization       0.0000000      0.0000000     -0.0000000

 Free energy of the ion-electron system (eV)
  ---------------------------------------------------
  alpha Z        PSCENC =       410.60019599
  Ewald energy   TEWEN  =     -8060.73854978
  -Hartree energ DENC   =     -3659.04744896
  -exchange      EXHF   =         0.00000000
  -V(xc)+E(xc)   XCENC  =       334.28320918
  PAW double counting   =      9729.51035955   -10451.36903413
  entropy T*S    EENTRO =        -0.00012730
  eigenvalues    EBANDS =      -568.43023076
  atomic energy  EATOM  =     12204.44938069
  ---------------------------------------------------
  free energy    TOTEN  =       -60.74224553 eV

  energy without entropy =      -60.74211823  energy(sigma->0) =      -60.74218188


--------------------------------------------------------------------------------------------------------




--------------------------------------- Iteration      1(   6)  ---------------------------------------


    POTLOK:  cpu time      0.0347: real time      0.0348
    SETDIJ:  cpu time      0.0109: real time      0.0109
    TRIAL :  cpu time      4.0720: real time      4.0821
    CORREC:  cpu time      1.5503: real time      1.5540
    CHARGE:  cpu time      0.0523: real time      0.0524
    --------------------------------------------
      LOOP:  cpu time      5.7204: real time      5.7344

 eigenvalue-minimisations  :     0
 total energy-change (2. order) : 0.4008522E+02  (-0.3357666E+02)
 number of electron      75.9999941 magnetization      -0.0000000     -0.0000000     -0.0000000
 augmentation part       38.7528506 magnetization      -0.0000000     -0.0000000     -0.0000000

 Free energy of the ion-electron system (eV)
  ---------------------------------------------------
  alpha Z        PSCENC =       410.60019599
  Ewald energy   TEWEN  =     -8060.73854978
  -Hartree energ DENC   =     -2945.82217506
  -exchange      EXHF   =         0.00000000
  -V(xc)+E(xc)   XCENC  =       308.87607313
  PAW double counting   =     13504.85260782   -14114.27871153
  entropy T*S    EENTRO =        -0.00009028
  eigenvalues    EBANDS =     -1328.59572289
  atomic energy  EATOM  =     12204.44938069
  ---------------------------------------------------
  free energy    TOTEN  =       -20.65702893 eV

  energy without entropy =      -20.65693865  energy(sigma->0) =      -20.65698379


--------------------------------------------------------------------------------------------------------




--------------------------------------- Iteration      1(   7)  ---------------------------------------


    POTLOK:  cpu time      0.0298: real time      0.0298
    SETDIJ:  cpu time      0.0088: real time      0.0088
    TRIAL :  cpu time      3.9514: real time      3.9609
    CORREC:  cpu time      1.5621: real time      1.5658
    CHARGE:  cpu time      0.0527: real time      0.0528
    --------------------------------------------
      LOOP:  cpu time      5.6053: real time      5.6197

 eigenvalue-minimisations  :     0
 total energy-change (2. order) :-0.3352485E+02  (-0.3390688E+00)
 number of electron      75.9999941 magnetization      -0.0000000     -0.0000000     -0.0000000
 augmentation part       38.7926363 magnetization      -0.0000000     -0.0000000     -0.0000000

 Free energy of the ion-electron system (eV)
  ---------------------------------------------------
  alpha Z        PSCENC =       410.60019599
  Ewald energy   TEWEN  =     -8060.73854978
  -Hartree energ DENC   =     -3522.37469155
  -exchange      EXHF   =         0.00000000
  -V(xc)+E(xc)   XCENC  =       329.04536210
  PAW double counting   =     14075.76191064   -14793.44044623
  entropy T*S    EENTRO =        -0.00009027
  eigenvalues    EBANDS =      -697.48494577
  atomic energy  EATOM  =     12204.44938069
  ---------------------------------------------------
  free energy    TOTEN  =       -54.18187419 eV

  energy without entropy =      -54.18178393  energy(sigma->0) =      -54.18182906


--------------------------------------------------------------------------------------------------------




--------------------------------------- Iteration      1(   8)  ---------------------------------------


    POTLOK:  cpu time      0.0295: real time      0.0295
    SETDIJ:  cpu time      0.0106: real time      0.0107
    TRIAL :  cpu time      3.7913: real time      3.8007
    CORREC:  cpu time      1.5144: real time      1.5183
    CHARGE:  cpu time      0.0519: real time      0.0520
    --------------------------------------------
      LOOP:  cpu time      5.3979: real time      5.4114

 eigenvalue-minimisations  :     0
 total energy-change (2. order) :-0.3393424E+00  (-0.4660350E-01)
 number of electron      75.9999942 magnetization      -0.0000000     -0.0000000     -0.0000000
 augmentation part       38.7540277 magnetization      -0.0000000     -0.0000000     -0.0000000

 Free energy of the ion-electron system (eV)
  ---------------------------------------------------
  alpha Z        PSCENC =       410.60019599
  Ewald energy   TEWEN  =     -8060.73854978
  -Hartree energ DENC   =     -3538.69074634
  -exchange      EXHF   =         0.00000000
  -V(xc)+E(xc)   XCENC  =       329.60624556
  PAW double counting   =     13729.77054457   -14444.96094040
  entropy T*S    EENTRO =        -0.00009027
  eigenvalues    EBANDS =      -684.55725659
  atomic energy  EATOM  =     12204.44938069
  ---------------------------------------------------
  free energy    TOTEN  =       -54.52121657 eV

  energy without entropy =      -54.52112630  energy(sigma->0) =      -54.52117144


--------------------------------------------------------------------------------------------------------




--------------------------------------- Iteration      1(   9)  ---------------------------------------


    POTLOK:  cpu time      0.0273: real time      0.0273
    SETDIJ:  cpu time      0.0089: real time      0.0089
    TRIAL :  cpu time      3.8741: real time      3.8833
    CORREC:  cpu time      1.5160: real time      1.5196
    CHARGE:  cpu time      0.0517: real time      0.0519
    --------------------------------------------
      LOOP:  cpu time      5.4782: real time      5.4913

 eigenvalue-minimisations  :     0
 total energy-change (2. order) :-0.4628695E-01  (-0.8112163E-02)
 number of electron      75.9999942 magnetization      -0.0000000     -0.0000000     -0.0000000
 augmentation part       38.8036387 magnetization      -0.0000000     -0.0000000     -0.0000000

 Free energy of the ion-electron system (eV)
  ---------------------------------------------------
  alpha Z        PSCENC =       410.60019599
  Ewald energy   TEWEN  =     -8060.73854978
  -Hartree energ DENC   =     -3528.39837890
  -exchange      EXHF   =         0.00000000
  -V(xc)+E(xc)   XCENC  =       329.34275060
  PAW double counting   =     13485.02439770   -14198.80293037
  entropy T*S    EENTRO =        -0.00009027
  eigenvalues    EBANDS =      -696.04427918
  atomic energy  EATOM  =     12204.44938069
  ---------------------------------------------------
  free energy    TOTEN  =       -54.56750353 eV

  energy without entropy =      -54.56741326  energy(sigma->0) =      -54.56745839


--------------------------------------------------------------------------------------------------------




--------------------------------------- Iteration      1(  10)  ---------------------------------------


    POTLOK:  cpu time      0.0272: real time      0.0273
    SETDIJ:  cpu time      0.0088: real time      0.0088
    TRIAL :  cpu time      3.8051: real time      3.8142
    CORREC:  cpu time      1.5422: real time      1.5458
    CHARGE:  cpu time      0.0527: real time      0.0528
    --------------------------------------------
      LOOP:  cpu time      5.4362: real time      5.4492

 eigenvalue-minimisations  :     0
 total energy-change (2. order) :-0.8111703E-02  (-0.1730138E-02)
 number of electron      75.9999942 magnetization      -0.0000000     -0.0000000     -0.0000000
 augmentation part       38.8009963 magnetization      -0.0000000     -0.0000000     -0.0000000

 Free energy of the ion-electron system (eV)
  ---------------------------------------------------
  alpha Z        PSCENC =       410.60019599
  Ewald energy   TEWEN  =     -8060.73854978
  -Hartree energ DENC   =     -3535.70340551
  -exchange      EXHF   =         0.00000000
  -V(xc)+E(xc)   XCENC  =       329.63389696
  PAW double counting   =     13453.95494766   -14169.60683408
  entropy T*S    EENTRO =        -0.00009027
  eigenvalues    EBANDS =      -687.16515688
  atomic energy  EATOM  =     12204.44938069
  ---------------------------------------------------
  free energy    TOTEN  =       -54.57561523 eV

  energy without entropy =      -54.57552496  energy(sigma->0) =      -54.57557010


--------------------------------------------------------------------------------------------------------




--------------------------------------- Iteration      1(  11)  ---------------------------------------


    POTLOK:  cpu time      0.0275: real time      0.0276
    SETDIJ:  cpu time      0.0088: real time      0.0089
    TRIAL :  cpu time      3.8505: real time      3.8599
    CORREC:  cpu time      1.5240: real time      1.5280
    CHARGE:  cpu time      0.0523: real time      0.0524
    --------------------------------------------
      LOOP:  cpu time      5.4634: real time      5.4769

 eigenvalue-minimisations  :     0
 total energy-change (2. order) :-0.1724952E-02  (-0.1510247E-03)
 number of electron      75.9999942 magnetization      -0.0000000     -0.0000000     -0.0000000
 augmentation part       38.7992460 magnetization      -0.0000000     -0.0000000     -0.0000000

 Free energy of the ion-electron system (eV)
  ---------------------------------------------------
  alpha Z        PSCENC =       410.60019599
  Ewald energy   TEWEN  =     -8060.73854978
  -Hartree energ DENC   =     -3534.62201832
  -exchange      EXHF   =         0.00000000
  -V(xc)+E(xc)   XCENC  =       329.61771961
  PAW double counting   =     13463.56840747   -14179.21738616
  entropy T*S    EENTRO =        -0.00009027
  eigenvalues    EBANDS =      -688.23499941
  atomic energy  EATOM  =     12204.44938069
  ---------------------------------------------------
  free energy    TOTEN  =       -54.57734018 eV

  energy without entropy =      -54.57724991  energy(sigma->0) =      -54.57729505


--------------------------------------------------------------------------------------------------------




--------------------------------------- Iteration      1(  12)  ---------------------------------------


    POTLOK:  cpu time      0.0283: real time      0.0284
    SETDIJ:  cpu time      0.0097: real time      0.0097
    TRIAL :  cpu time      3.8008: real time      3.8100
    CORREC:  cpu time      1.5478: real time      1.5515
    CHARGE:  cpu time      0.0526: real time      0.0527
    --------------------------------------------
      LOOP:  cpu time      5.4394: real time      5.4525

 eigenvalue-minimisations  :     0
 total energy-change (2. order) :-0.1578932E-03  (-0.2434755E-04)
 number of electron      75.9999942 magnetization      -0.0000000     -0.0000000     -0.0000000
 augmentation part       38.8013216 magnetization      -0.0000000     -0.0000000     -0.0000000

 Free energy of the ion-electron system (eV)
  ---------------------------------------------------
  alpha Z        PSCENC =       410.60019599
  Ewald energy   TEWEN  =     -8060.73854978
  -Hartree energ DENC   =     -3534.42620002
  -exchange      EXHF   =         0.00000000
  -V(xc)+E(xc)   XCENC  =       329.61028406
  PAW double counting   =     13471.63276628   -14187.11061243
  entropy T*S    EENTRO =        -0.00009027
  eigenvalues    EBANDS =      -688.59467259
  atomic energy  EATOM  =     12204.44938069
  ---------------------------------------------------
  free energy    TOTEN  =       -54.57749808 eV

  energy without entropy =      -54.57740780  energy(sigma->0) =      -54.57745294


--------------------------------------------------------------------------------------------------------




--------------------------------------- Iteration      1(  13)  ---------------------------------------


    POTLOK:  cpu time      0.0279: real time      0.0280
    SETDIJ:  cpu time      0.0089: real time      0.0089
    TRIAL :  cpu time      3.9494: real time      3.9589
    CORREC:  cpu time      1.5753: real time      1.5793
    CHARGE:  cpu time      0.0542: real time      0.0543
    --------------------------------------------
      LOOP:  cpu time      5.6161: real time      5.6301

 eigenvalue-minimisations  :     0
 total energy-change (2. order) :-0.2465356E-04  (-0.9076088E-05)
 number of electron      75.9999942 magnetization      -0.0000000     -0.0000000     -0.0000000
 augmentation part       38.8005792 magnetization      -0.0000000     -0.0000000     -0.0000000

 Free energy of the ion-electron system (eV)
  ---------------------------------------------------
  alpha Z        PSCENC =       410.60019599
  Ewald energy   TEWEN  =     -8060.73854978
  -Hartree energ DENC   =     -3534.83114354
  -exchange      EXHF   =         0.00000000
  -V(xc)+E(xc)   XCENC  =       329.62358838
  PAW double counting   =     13472.09570928   -14187.61217126
  entropy T*S    EENTRO =        -0.00009027
  eigenvalues    EBANDS =      -688.16444221
  atomic energy  EATOM  =     12204.44938069
  ---------------------------------------------------
  free energy    TOTEN  =       -54.57752273 eV

  energy without entropy =      -54.57743246  energy(sigma->0) =      -54.57747759


--------------------------------------------------------------------------------------------------------




--------------------------------------- Iteration      1(  14)  ---------------------------------------


    POTLOK:  cpu time      0.0286: real time      0.0287
    SETDIJ:  cpu time      0.0091: real time      0.0091
    TRIAL :  cpu time      3.9303: real time      3.9401
    CORREC:  cpu time      1.5572: real time      1.5610
    CHARGE:  cpu time      0.0528: real time      0.0529
    --------------------------------------------
      LOOP:  cpu time      5.5782: real time      5.5920

 eigenvalue-minimisations  :     0
 total energy-change (2. order) :-0.9351207E-05  (-0.5224288E-06)
 number of electron      75.9999942 magnetization      -0.0000000     -0.0000000     -0.0000000
 augmentation part       38.8005420 magnetization      -0.0000000     -0.0000000     -0.0000000

 Free energy of the ion-electron system (eV)
  ---------------------------------------------------
  alpha Z        PSCENC =       410.60019599
  Ewald energy   TEWEN  =     -8060.73854978
  -Hartree energ DENC   =     -3534.72478712
  -exchange      EXHF   =         0.00000000
  -V(xc)+E(xc)   XCENC  =       329.61920208
  PAW double counting   =     13470.03633776   -14185.50540248
  entropy T*S    EENTRO =        -0.00009027
  eigenvalues    EBANDS =      -688.31381894
  atomic energy  EATOM  =     12204.44938069
  ---------------------------------------------------
  free energy    TOTEN  =       -54.57753208 eV

  energy without entropy =      -54.57744181  energy(sigma->0) =      -54.57748694


--------------------------------------------------------------------------------------------------------




--------------------------------------- Iteration      1(  15)  ---------------------------------------


    POTLOK:  cpu time      0.0275: real time      0.0276
    SETDIJ:  cpu time      0.0088: real time      0.0089
    TRIAL :  cpu time      3.8847: real time      3.8939
    CORREC:  cpu time      1.5498: real time      1.5535
    CHARGE:  cpu time      0.0528: real time      0.0529
    --------------------------------------------
      LOOP:  cpu time      5.5239: real time      5.5371

 eigenvalue-minimisations  :     0
 total energy-change (2. order) :-0.5013717E-06  (-0.1558250E-06)
 number of electron      75.9999942 magnetization      -0.0000000     -0.0000000     -0.0000000
 augmentation part       38.8005733 magnetization      -0.0000000     -0.0000000     -0.0000000

 Free energy of the ion-electron system (eV)
  ---------------------------------------------------
  alpha Z        PSCENC =       410.60019599
  Ewald energy   TEWEN  =     -8060.73854978
  -Hartree energ DENC   =     -3534.72429001
  -exchange      EXHF   =         0.00000000
  -V(xc)+E(xc)   XCENC  =       329.61910383
  PAW double counting   =     13469.40601616   -14184.86972949
  entropy T*S    EENTRO =        -0.00009027
  eigenvalues    EBANDS =      -688.31956970
  atomic energy  EATOM  =     12204.44938069
  ---------------------------------------------------
  free energy    TOTEN  =       -54.57753258 eV

  energy without entropy =      -54.57744231  energy(sigma->0) =      -54.57748745


--------------------------------------------------------------------------------------------------------




--------------------------------------- Iteration      1(  16)  ---------------------------------------


    POTLOK:  cpu time      0.0277: real time      0.0278
    SETDIJ:  cpu time      0.0088: real time      0.0088
    TRIAL :  cpu time      3.9874: real time      3.9971
    CORREC:  cpu time      1.5407: real time      1.5444
    EDDIAG:  cpu time      1.0440: real time      1.0468
    CHARGE:  cpu time      0.0581: real time      0.0583
    --------------------------------------------
      LOOP:  cpu time      6.6670: real time      6.6841

 eigenvalue-minimisations  :     0
 total energy-change (2. order) :-0.9789892E-07  (-0.8622350E-07)
 number of electron      75.9999942 magnetization      -0.0000000     -0.0000000     -0.0000000
 augmentation part       38.8005705 magnetization      -0.0000000     -0.0000000     -0.0000000

 Free energy of the ion-electron system (eV)
  ---------------------------------------------------
  alpha Z        PSCENC =       410.60019599
  Ewald energy   TEWEN  =     -8060.73854978
  -Hartree energ DENC   =     -3534.73200790
  -exchange      EXHF   =         0.00000000
  -V(xc)+E(xc)   XCENC  =       329.61935640
  PAW double counting   =     13469.22300215   -14184.68621804
  entropy T*S    EENTRO =        -0.00009027
  eigenvalues    EBANDS =      -688.31260192
  atomic energy  EATOM  =     12204.44938069
  ---------------------------------------------------
  free energy    TOTEN  =       -54.57753268 eV

  energy without entropy =      -54.57744241  energy(sigma->0) =      -54.57748754


--------------------------------------------------------------------------------------------------------


  average scaling for gradient   1.5341


 average (electrostatic) potential at core
  the test charge radii are     0.9804  0.9892
  (the norm of the test charge is              1.0000)
       1 -61.2467       2 -61.2467       3 -61.2467       4 -61.2467       5 -77.7845
       6 -77.7845       7 -77.7845       8 -77.7845
 
 
 
 E-fermi :  11.9690     XC(G=0): -13.2862     alpha+bet :-19.8701

 val. band max:       11.9686357528   @ k =   0.0000   0.0000   0.0000
 cond. band min:      11.9686357974   @ k =   0.0000   0.0000   0.0000
 fundamental gap:      0.0000000445
 Fermi energy:        11.9690167218

 k-point     1 :       0.0000    0.0000    0.0000
  band No.  band energies     occupation 
      1     -47.4896      1.00000
      2     -47.4896      1.00000
      3     -47.4896      1.00000
      4     -47.4896      1.00000
      5     -47.4871      1.00000
      6     -47.4871      1.00000
      7     -47.4538      1.00000
      8     -47.4538      1.00000
      9     -45.7169      1.00000
     10     -45.7169      1.00000
     11     -45.7038      1.00000
     12     -45.7038      1.00000
     13     -45.7038      1.00000
     14     -45.7038      1.00000
     15     -45.6860      1.00000
     16     -45.6860      1.00000
     17     -45.6551      1.00000
     18     -45.6551      1.00000
     19     -45.6551      1.00000
     20     -45.6551      1.00000
     21     -45.6164      1.00000
     22     -45.6164      1.00000
     23     -45.6164      1.00000
     24     -45.6164      1.00000
     25      -2.0043      1.00000
     26      -2.0043      1.00000
     27       3.6076      1.00000
     28       3.6076      1.00000
     29       3.6076      1.00000
     30       3.6076      1.00000
     31       3.6197      1.00000
     32       3.6197      1.00000
     33       6.3049      1.00000
     34       6.3049      1.00000
     35       6.3178      1.00000
     36       6.3178      1.00000
     37       6.3178      1.00000
     38       6.3178      1.00000
     39       8.0359      1.00000
     40       8.0359      1.00000
     41       8.0359      1.00000
     42       8.0359      1.00000
     43       8.0752      1.00000
     44       8.0752      1.00000
     45       8.7321      1.00000
     46       8.7321      1.00000
     47       8.7633      1.00000
     48       8.7633      1.00000
     49       8.7633      1.00000
     50       8.7633      1.00000
     51       9.1061      1.00000
     52       9.1061      1.00000
     53       9.1061      1.00000
     54       9.1061      1.00000
     55       9.1205      1.00000
     56       9.1205      1.00000
     57       9.5661      1.00000
     58       9.5661      1.00000
     59       9.5661      1.00000
     60       9.5661      1.00000
     61       9.5959      1.00000
     62       9.5959      1.00000
     63      10.9741      1.00000
     64      10.9741      1.00000
     65      11.0208      1.00000
     66      11.0208      1.00000
     67      11.0208      1.00000
     68      11.0208      1.00000
     69      11.1464      1.00000
     70      11.1464      1.00000
     71      11.1464      1.00000
     72      11.1464      1.00000
     73      11.9159      1.00000
     74      11.9159      1.00000
     75      11.9686      0.50008
     76      11.9686      0.50004
     77      11.9686      0.49996
     78      11.9686      0.49993
     79      14.5779      0.00000
     80      14.5779      0.00000
     81      14.5779      0.00000
     82      14.5779      0.00000
     83      14.6281      0.00000
     84      14.6281      0.00000
     85      14.9551      0.00000
     86      14.9551      0.00000
     87      14.9551      0.00000
     88      14.9551      0.00000
     89      15.6487      0.00000
     90      15.6487      0.00000
     91      15.6487      0.00000
     92      15.6487      0.00000
     93      15.6545      0.00000
     94      15.6545      0.00000
     95      16.9174      0.00000
     96      16.9174      0.00000
     97      18.2003      0.00000
     98      18.2003      0.00000
     99      18.2420      0.00000
    100      18.2420      0.00000
    101      18.2420      0.00000
    102      18.2420      0.00000
    103      20.5027      0.00000
    104      20.5027      0.00000
    105      20.5027      0.00000
    106      20.5027      0.00000
    107      20.5094      0.00000
    108      20.5094      0.00000
    109      21.6391      0.00000
    110      21.6391      0.00000
    111      22.4411      0.00000
    112      22.4411      0.00000
    113      22.4518      0.00000
    114      22.4518      0.00000
    115      22.4518      0.00000
    116      22.4518      0.00000
    117      23.0484      0.00000
    118      23.0484      0.00000
    119      27.3866      0.00000
    120      27.3866      0.00000
    121      27.3866      0.00000
    122      27.3866      0.00000
    123      29.4715      0.00000
    124      29.4715      0.00000
    125      29.4715      0.00000
    126      29.4715      0.00000
    127      29.4715      0.00000
    128      29.4715      0.00000
    129      30.7420      0.00000
    130      30.7420      0.00000
    131      31.3490      0.00000
    132      31.3490      0.00000
    133      31.3490      0.00000
    134      31.3490      0.00000
    135      31.8952      0.00000
    136      31.8952      0.00000
    137      31.9249      0.00000
    138      31.9249      0.00000
    139      31.9249      0.00000
    140      31.9249      0.00000
    141      33.6500      0.00000
    142      33.6500      0.00000
    143      33.6500      0.00000
    144      33.6500      0.00000
    145      33.6691      0.00000
    146      33.6691      0.00000
    147      35.9085      0.00000
    148      35.9085      0.00000
    149      35.9147      0.00000
    150      35.9147      0.00000
    151      35.9147      0.00000
    152      35.9147      0.00000
    153      36.3664      0.00000
    154      36.3664      0.00000
    155      36.3664      0.00000
    156      36.3664      0.00000
    157      36.5598      0.00000
    158      36.5598      0.00000
    159      36.5904      0.00000
    160      36.5904      0.00000
    161      36.5904      0.00000
    162      36.5904      0.00000
    163      38.8449      0.00000
    164      38.8449      0.00000
    165      38.8455      0.00000
    166      38.8455      0.00000
    167      38.8455      0.00000
    168      38.8455      0.00000
    169      40.0751      0.00000
    170      40.0751      0.00000
    171      40.9671      0.00000
    172      40.9671      0.00000
    173      40.9671      0.00000
    174      40.9671      0.00000
    175      40.9826      0.00000
    176      40.9826      0.00000
    177      41.5567      0.00000
    178      41.5567      0.00000
    179      41.8928      0.00000
    180      41.8928      0.00000
    181      41.8928      0.00000
    182      41.8928      0.00000
    183      42.0545      0.00000
    184      42.0545      0.00000
    185      42.1129      0.00000
    186      42.1129      0.00000
    187      42.1129      0.00000
    188      42.1129      0.00000
    189      44.3326      0.00000
    190      44.3326      0.00000
    191      44.5184      0.00000
    192      44.5184      0.00000
    193      44.5184      0.00000
    194      44.5184      0.00000
    195      45.5917      0.00000
    196      45.5917      0.00000
    197      46.1039      0.00000
    198      46.1039      0.00000
    199      46.1443      0.00000
    200      46.1443      0.00000
    201      46.1443      0.00000
    202      46.1443      0.00000
    203      46.5256      0.00000
    204      46.5256      0.00000
    205      46.5325      0.00000
    206      46.5325      0.00000
    207      46.5325      0.00000
    208      46.5325      0.00000
    209      46.6082      0.00000
    210      46.6082      0.00000
    211      46.6082      0.00000
    212      46.6082      0.00000
    213      47.2788      0.00000
    214      47.2788      0.00000
    215      47.2788      0.00000
    216      47.2788      0.00000
    217      47.2845      0.00000
    218      47.2845      0.00000
    219      49.9286      0.00000
    220      49.9286      0.00000
    221      49.9286      0.00000
    222      49.9286      0.00000
    223      49.9332      0.00000
    224      49.9332      0.00000
    225      53.5128      0.00000
    226      53.5128      0.00000
    227      56.9467      0.00000
    228      56.9467      0.00000
    229      56.9467      0.00000
    230      56.9467      0.00000
    231      56.9494      0.00000
    232      56.9494      0.00000
    233      57.4242      0.00000
    234      57.4242      0.00000
    235      57.4315      0.00000
    236      57.4315      0.00000
    237      57.4315      0.00000
    238      57.4315      0.00000
    239      58.5753      0.00000
    240      58.5753      0.00000
    241      58.5753      0.00000
    242      58.5753      0.00000
    243      59.4776      0.00000
    244      59.4776      0.00000
    245      59.4938      0.00000
    246      59.4938      0.00000
    247      59.4938      0.00000
    248      59.4938      0.00000
    249      60.2468      0.00000
    250      60.2468      0.00000
    251      60.2488      0.00000
    252      60.2488      0.00000
    253      60.2488      0.00000
    254      60.2488      0.00000
    255      60.8326      0.00000
    256      60.8326      0.00000
    257      62.5240      0.00000
    258      62.5240      0.00000
    259      62.5255      0.00000
    260      62.5255      0.00000
    261      62.5255      0.00000
    262      62.5255      0.00000
    263      62.6477      0.00000
    264      62.6477      0.00000
    265      62.6477      0.00000
    266      62.6477      0.00000
    267      63.4115      0.00000
    268      63.4115      0.00000
    269      63.4134      0.00000
    270      63.4134      0.00000
    271      63.4134      0.00000
    272      63.4134      0.00000
    273      63.7616      0.00000
    274      63.7616      0.00000
    275      63.7674      0.00000
    276      63.7674      0.00000
    277      63.7674      0.00000
    278      63.7674      0.00000
    279      66.8511      0.00000
    280      66.8511      0.00000
    281      66.8511      0.00000
    282      66.8511      0.00000
    283      66.8514      0.00000
    284      66.8514      0.00000
    285      67.6036      0.00000
    286      67.6036      0.00000
    287      67.8280      0.00000
    288      67.8280      0.00000
    289      67.8280      0.00000
    290      67.8280      0.00000
    291      67.8287      0.00000
    292      67.8287      0.00000
    293      67.8596      0.00000
    294      67.8596      0.00000
    295      67.8596      0.00000
    296      67.8596      0.00000
    297      68.6824      0.00000
    298      68.6824      0.00000
    299      68.6824      0.00000
    300      68.6824      0.00000
    301      68.6842      0.00000
    302      68.6842      0.00000
    303      68.8902      0.00000
    304      68.8902      0.00000
    305      68.8902      0.00000
    306      68.8902      0.00000
    307      69.2923      0.00000
    308      69.2923      0.00000
    309      70.3130      0.00000
    310      70.3130      0.00000
    311      70.3130      0.00000
    312      70.3130      0.00000
    313      70.3145      0.00000
    314      70.3145      0.00000
    315      70.8949      0.00000
    316      70.8949      0.00000
    317      70.9004      0.00000
    318      70.9004      0.00000
    319      70.9004      0.00000
    320      70.9004      0.00000
    321      72.6771      0.00000
    322      72.6771      0.00000
    323      72.6841      0.00000
    324      72.6841      0.00000
    325      72.6841      0.00000
    326      72.6841      0.00000
    327      74.2514      0.00000
    328      74.2514      0.00000
    329      74.2605      0.00000
    330      74.2605      0.00000
    331      74.2605      0.00000
    332      74.2605      0.00000
    333      75.4111      0.00000
    334      75.4111      0.00000
    335      75.4140      0.00000
    336      75.4140      0.00000
    337      75.4140      0.00000
    338      75.4140      0.00000
    339      75.7091      0.00000
    340      75.7091      0.00000
    341      77.3882      0.00000
    342      77.3882      0.00000
    343      77.3882      0.00000
    344      77.3882      0.00000
    345      77.7534      0.00000
    346      77.7534      0.00000
    347      77.7641      0.00000
    348      77.7641      0.00000
    349      77.7641      0.00000
    350      77.7641      0.00000
    351      77.9404      0.00000
    352      77.9404      0.00000
    353      77.9616      0.00000
    354      77.9616      0.00000
    355      77.9616      0.00000
    356      77.9616      0.00000
    357      78.1830      0.00000
    358      78.1832      0.00000
    359      79.2887      0.00000
    360      79.2887      0.00000
    361      79.2931      0.00000
    362      79.2932      0.00000
    363      79.2932      0.00000
    364      79.2933      0.00000
    365      80.6078      0.00000
    366      80.6111      0.00000
    367      81.2898      0.00000
    368      81.2899      0.00000
    369      81.2900      0.00000
    370      81.2904      0.00000
    371      81.2953      0.00000
    372      81.2954      0.00000
    373      81.9285      0.00000
    374      81.9302      0.00000
    375      82.8305      0.00000
    376      82.8306      0.00000
    377      82.8306      0.00000
    378      82.8306      0.00000
    379      83.4919      0.00000
    380      83.4920      0.00000
    381      83.4920      0.00000
    382      83.4923      0.00000
    383      83.5089      0.00000
    384      83.5092      0.00000
    385      84.9785      0.00000
    386      84.9797      0.00000
    387      84.9842      0.00000
    388      84.9853      0.00000
    389      84.9880      0.00000
    390      84.9911      0.00000
    391      85.0852      0.00000
    392      85.0973      0.00000
    393      85.7268      0.00000
    394      85.7271      0.00000
    395      85.7350      0.00000
    396      85.7355      0.00000
    397      85.7359      0.00000
    398      85.7375      0.00000
    399      85.9163      0.00000
    400      85.9165      0.00000
    401      85.9175      0.00000
    402      85.9193      0.00000
    403      87.5004      0.00000
    404      87.6501      0.00000
    405      87.8509      0.00000
    406      87.8524      0.00000
    407      87.8539      0.00000
    408      87.8607      0.00000
    409      87.8707      0.00000
    410      87.8871      0.00000
    411      89.0359      0.00000
    412      89.0526      0.00000
    413      89.0630      0.00000
    414      89.0766      0.00000
    415      89.1059      0.00000
    416      89.1929      0.00000
    417      90.4415      0.00000
    418      90.4744      0.00000
    419      90.5349      0.00000
    420      90.8985      0.00000
    421      91.2238      0.00000
    422      91.3204      0.00000

 k-point     2 :       0.0333    0.0000    0.0000
  band No.  band energies     occupation 
      1     -47.4905      1.00000
      2     -47.4898      1.00000
      3     -47.4894      1.00000
      4     -47.4884      1.00000
      5     -47.4876      1.00000
      6     -47.4863      1.00000
      7     -47.4538      1.00000
      8     -47.4538      1.00000
      9     -45.7180      1.00000
     10     -45.7156      1.00000
     11     -45.7049      1.00000
     12     -45.7048      1.00000
     13     -45.7029      1.00000
     14     -45.7025      1.00000
     15     -45.6867      1.00000
     16     -45.6854      1.00000
     17     -45.6574      1.00000
     18     -45.6557      1.00000
     19     -45.6542      1.00000
     20     -45.6527      1.00000
     21     -45.6170      1.00000
     22     -45.6166      1.00000
     23     -45.6162      1.00000
     24     -45.6159      1.00000
     25      -1.9958      1.00000
     26      -1.9958      1.00000
     27       3.4186      1.00000
     28       3.4252      1.00000
     29       3.6170      1.00000
     30       3.6171      1.00000
     31       3.7795      1.00000
     32       3.7889      1.00000
     33       6.1664      1.00000
     34       6.1762      1.00000
     35       6.3187      1.00000
     36       6.3188      1.00000
     37       6.4648      1.00000
     38       6.4719      1.00000
     39       7.8727      1.00000
     40       7.8932      1.00000
     41       8.0196      1.00000
     42       8.0310      1.00000
     43       8.1961      1.00000
     44       8.2288      1.00000
[...]
     E(ev)        X           Y           Z          XY          YZ          ZX
  --------------------------------------------------------------------------------------------------------------
    0.000000   47.259956   47.259956   47.259956    0.000000    0.000000    0.000000
    1.685467   10.812094   10.812094   10.812094   -0.000000   -0.000000   -0.000000
    3.370934    7.845876    7.845876    7.845876   -0.000000    0.000000    0.000000
    5.056401    6.314803    6.314803    6.314803   -0.000000   -0.000000   -0.000000
    6.741868   -3.186138   -3.186138   -3.186138    0.000000    0.000000    0.000000
    8.427335   -4.917915   -4.917915   -4.917915   -0.000000    0.000000    0.000000
   10.112802   -3.602858   -3.602858   -3.602858   -0.000000    0.000000    0.000000
   11.798269   -2.724738   -2.724738   -2.724738   -0.000000    0.000000    0.000000
   13.483736   -1.997506   -1.997506   -1.997506    0.000000    0.000000   -0.000000
   15.169203   -1.422138   -1.422138   -1.422138   -0.000000    0.000000    0.000000
   16.854670   -0.888001   -0.888001   -0.888001   -0.000000   -0.000000   -0.000000
   18.540137   -0.569820   -0.569820   -0.569820   -0.000000   -0.000000   -0.000000
   20.225604   -0.279626   -0.279626   -0.279626   -0.000000   -0.000000    0.000000
   21.911071   -0.051228   -0.051228   -0.051228   -0.000000   -0.000000    0.000000
   23.596538    0.093066    0.093066    0.093066   -0.000000   -0.000000   -0.000000
   25.282005    0.210428    0.210428    0.210428   -0.000000   -0.000000    0.000000
   26.967472    0.308252    0.308252    0.308252   -0.000000   -0.000000   -0.000000
   28.652939    0.374031    0.374031    0.374031   -0.000000   -0.000000   -0.000000
   30.338406    0.452593    0.452593    0.452593    0.000000   -0.000000    0.000000
   32.023873    0.519689    0.519689    0.519689   -0.000000   -0.000000    0.000000
   33.709339    0.584742    0.584742    0.584742   -0.000000    0.000000    0.000000
   35.394806    0.616704    0.616704    0.616704   -0.000000    0.000000    0.000000
   37.080273    0.675536    0.675536    0.675536   -0.000000   -0.000000    0.000000
   38.765740    0.702507    0.702507    0.702507   -0.000000    0.000000    0.000000
   40.451207    0.708852    0.708852    0.708852   -0.000000   -0.000000   -0.000000
   42.136674    0.722573    0.722573    0.722573   -0.000000   -0.000000    0.000000
   43.822141    0.743080    0.743080    0.743080   -0.000000   -0.000000    0.000000
   45.507608    0.743245    0.743245    0.743245   -0.000000    0.000000   -0.000000
   47.193075    0.779478    0.779478    0.779478   -0.000000    0.000000    0.000000
   48.878542    0.798778    0.798778    0.798778   -0.000000   -0.000000    0.000000
   50.564009    0.802869    0.802869    0.802869   -0.000000    0.000000   -0.000000
   52.249476    0.820636    0.820636    0.820636   -0.000000   -0.000000    0.000000
   53.934943    0.833646    0.833646    0.833646   -0.000000   -0.000000   -0.000000
   55.620410    0.878401    0.878401    0.878401   -0.000000   -0.000000   -0.000000
   57.305877    0.995463    0.995463    0.995463   -0.000000   -0.000000   -0.000000
   58.991344    0.920137    0.920137    0.920137    0.000000    0.000000    0.000000
   60.676811    0.742405    0.742405    0.742405   -0.000000    0.000000    0.000000
   62.362278    0.709082    0.709082    0.709082   -0.000000    0.000000    0.000000
   64.047745    0.706280    0.706280    0.706280   -0.000000   -0.000000    0.000000
   65.733212    0.731717    0.731717    0.731717   -0.000000    0.000000    0.000000
   67.418679    0.784173    0.784173    0.784173   -0.000000    0.000000    0.000000
   69.104146    0.790367    0.790367    0.790367   -0.000000   -0.000000   -0.000000
   70.789613    0.795962    0.795962    0.795962    0.000000   -0.000000   -0.000000
   72.475080    0.809025    0.809025    0.809025   -0.000000   -0.000000    0.000000
   74.160547    0.818703    0.818703    0.818703    0.000000    0.000000    0.000000
   75.846014    0.825174    0.825174    0.825174   -0.000000    0.000000    0.000000
   77.531481    0.837051    0.837051    0.837051   -0.000000    0.000000    0.000000
   79.216948    0.840011    0.840011    0.840011   -0.000000   -0.000000    0.000000
   80.902415    0.841088    0.841088    0.841088   -0.000000   -0.000000    0.000000
   82.587882    0.854569    0.854569    0.854569   -0.000000   -0.000000    0.000000
   84.273349    0.860705    0.860705    0.860705   -0.000000   -0.000000    0.000000
   85.958816    0.870828    0.870828    0.870828   -0.000000   -0.000000    0.000000
   87.644283    0.878054    0.878054    0.878054   -0.000000   -0.000000    0.000000
   89.329750    0.887025    0.887025    0.887025   -0.000000   -0.000000    0.000000
   91.015217    0.894714    0.894714    0.894714   -0.000000   -0.000000    0.000000
   92.700684    0.900728    0.900728    0.900728   -0.000000   -0.000000    0.000000
   94.386151    0.905988    0.905988    0.905988   -0.000000   -0.000000    0.000000
   96.071618    0.910092    0.910092    0.910092   -0.000000   -0.000000   -0.000000
   97.757085    0.914268    0.914268    0.914268   -0.000000   -0.000000    0.000000
   99.442551    0.918144    0.918144    0.918144   -0.000000   -0.000000    0.000000
  101.128018    0.922836    0.922836    0.922836   -0.000000   -0.000000    0.000000
  102.813485    0.926136    0.926136    0.926136   -0.000000   -0.000000    0.000000
  104.498952    0.929829    0.929829    0.929829   -0.000000   -0.000000    0.000000
  106.184419    0.934861    0.934861    0.934861   -0.000000   -0.000000    0.000000
  107.869886    0.939245    0.939245    0.939245   -0.000000   -0.000000    0.000000
  109.555353    0.941222    0.941222    0.941222   -0.000000   -0.000000    0.000000
  111.240820    0.943642    0.943642    0.943642   -0.000000   -0.000000    0.000000
  112.926287    0.947332    0.947332    0.947332   -0.000000   -0.000000    0.000000
  114.611754    0.952581    0.952581    0.952581   -0.000000   -0.000000    0.000000
  116.297221    0.954364    0.954364    0.954364   -0.000000   -0.000000    0.000000
  117.982688    0.957512    0.957512    0.957512   -0.000000   -0.000000    0.000000
  119.668155    0.960258    0.960258    0.960258   -0.000000   -0.000000    0.000000
  121.353622    0.962223    0.962223    0.962223    0.000000   -0.000000    0.000000
  123.039089    0.954378    0.954378    0.954378   -0.000000   -0.000000   -0.000000
  124.724556    0.947044    0.947044    0.947044   -0.000000   -0.000000   -0.000000
  126.410023    0.938191    0.938191    0.938191   -0.000000   -0.000000   -0.000000
  128.095490    0.926420    0.926420    0.926420   -0.000000   -0.000000    0.000000
  129.780957    0.925069    0.925069    0.925069   -0.000000   -0.000000    0.000000
  131.466424    0.931784    0.931784    0.931784   -0.000000   -0.000000    0.000000
  133.151891    0.937487    0.937487    0.937487   -0.000000   -0.000000    0.000000
  134.837358    0.941908    0.941908    0.941908   -0.000000   -0.000000    0.000000
  136.522825    0.944878    0.944878    0.944878   -0.000000   -0.000000    0.000000
  138.208292    0.947678    0.947678    0.947678   -0.000000   -0.000000    0.000000
  139.893759    0.950164    0.950164    0.950164   -0.000000   -0.000000    0.000000
  141.579226    0.952270    0.952270    0.952270   -0.000000   -0.000000    0.000000
  143.264693    0.954089    0.954089    0.954089   -0.000000   -0.000000    0.000000
  144.950160    0.955713    0.955713    0.955713   -0.000000   -0.000000    0.000000
  146.635627    0.957189    0.957189    0.957189   -0.000000   -0.000000    0.000000
  148.321094    0.958547    0.958547    0.958547   -0.000000   -0.000000    0.000000
  150.006561    0.959806    0.959806    0.959806   -0.000000   -0.000000    0.000000
  151.692028    0.960982    0.960982    0.960982   -0.000000   -0.000000    0.000000
  153.377495    0.962086    0.962086    0.962086   -0.000000   -0.000000    0.000000
  155.062962    0.963126    0.963126    0.963126   -0.000000   -0.000000    0.000000
  156.748429    0.964111    0.964111    0.964111   -0.000000   -0.000000    0.000000
  158.433896    0.965045    0.965045    0.965045   -0.000000   -0.000000    0.000000
  160.119363    0.965934    0.965934    0.965934   -0.000000   -0.000000    0.000000
  161.804830    0.966781    0.966781    0.966781   -0.000000   -0.000000    0.000000
  163.490297    0.967590    0.967590    0.967590   -0.000000   -0.000000    0.000000
  165.175763    0.968365    0.968365    0.968365   -0.000000   -0.000000    0.000000
  166.861230    0.969106    0.969106    0.969106   -0.000000   -0.000000    0.000000
 
 The outermost node in the dielectric function lies at epsilon=  22.4


--------------------------------------------------------------------------------------------------------


    OPTICS:  cpu time      1.3558: real time      1.3909
    4ORBIT:  cpu time      0.0000: real time      0.0000

 Spin-Orbit-Coupling matrix elements

 Ion:    1  E_soc:     -0.0386522
 l=   1
     0.0000000    -0.0048499    -0.0048499
    -0.0048499     0.0000000    -0.0048499
    -0.0048499    -0.0048499     0.0000000
 l=   2
     0.0000000    -0.0003470     0.0000000    -0.0003470    -0.0012452
    -0.0003470     0.0000000    -0.0009509    -0.0003470    -0.0002943
     0.0000000    -0.0009509     0.0000000    -0.0009169     0.0000000
    -0.0003470    -0.0003470    -0.0009169     0.0000000    -0.0003283
    -0.0012452    -0.0002943     0.0000000    -0.0003283     0.0000000
 l=   3
     0.0000000     0.0000000     0.0000000     0.0000000     0.0000000     0.0000000     0.0000000
     0.0000000     0.0000000     0.0000000     0.0000000     0.0000000     0.0000000     0.0000000
     0.0000000     0.0000000     0.0000000     0.0000000     0.0000000     0.0000000     0.0000000
     0.0000000     0.0000000     0.0000000     0.0000000     0.0000000     0.0000000     0.0000000
     0.0000000     0.0000000     0.0000000     0.0000000     0.0000000     0.0000000     0.0000000
     0.0000000     0.0000000     0.0000000     0.0000000     0.0000000     0.0000000     0.0000000
     0.0000000     0.0000000     0.0000000     0.0000000     0.0000000     0.0000000     0.0000000

 Ion:    2  E_soc:     -0.0386522
 l=   1
     0.0000000    -0.0048499    -0.0048499
    -0.0048499     0.0000000    -0.0048499
    -0.0048499    -0.0048499     0.0000000
 l=   2
     0.0000000    -0.0003470     0.0000000    -0.0003470    -0.0012452
    -0.0003470     0.0000000    -0.0009509    -0.0003470    -0.0002943
     0.0000000    -0.0009509     0.0000000    -0.0009169     0.0000000
    -0.0003470    -0.0003470    -0.0009169     0.0000000    -0.0003283
    -0.0012452    -0.0002943     0.0000000    -0.0003283     0.0000000
 l=   3
     0.0000000     0.0000000     0.0000000     0.0000000     0.0000000     0.0000000     0.0000000
     0.0000000     0.0000000     0.0000000     0.0000000     0.0000000     0.0000000     0.0000000
     0.0000000     0.0000000     0.0000000     0.0000000     0.0000000     0.0000000     0.0000000
     0.0000000     0.0000000     0.0000000     0.0000000     0.0000000     0.0000000     0.0000000
     0.0000000     0.0000000     0.0000000     0.0000000     0.0000000     0.0000000     0.0000000
     0.0000000     0.0000000     0.0000000     0.0000000     0.0000000     0.0000000     0.0000000
     0.0000000     0.0000000     0.0000000     0.0000000     0.0000000     0.0000000     0.0000000

 Ion:    3  E_soc:     -0.0386522
 l=   1
     0.0000000    -0.0048499    -0.0048499
    -0.0048499     0.0000000    -0.0048499
    -0.0048499    -0.0048499     0.0000000
 l=   2
     0.0000000    -0.0003470     0.0000000    -0.0003470    -0.0012452
    -0.0003470     0.0000000    -0.0009509    -0.0003470    -0.0002943
     0.0000000    -0.0009509     0.0000000    -0.0009169     0.0000000
    -0.0003470    -0.0003470    -0.0009169     0.0000000    -0.0003283
    -0.0012452    -0.0002943     0.0000000    -0.0003283     0.0000000
 l=   3
     0.0000000     0.0000000     0.0000000     0.0000000     0.0000000     0.0000000     0.0000000
     0.0000000     0.0000000     0.0000000     0.0000000     0.0000000     0.0000000     0.0000000
     0.0000000     0.0000000     0.0000000     0.0000000     0.0000000     0.0000000     0.0000000
     0.0000000     0.0000000     0.0000000     0.0000000     0.0000000     0.0000000     0.0000000
     0.0000000     0.0000000     0.0000000     0.0000000     0.0000000     0.0000000     0.0000000
     0.0000000     0.0000000     0.0000000     0.0000000     0.0000000     0.0000000     0.0000000
     0.0000000     0.0000000     0.0000000     0.0000000     0.0000000     0.0000000     0.0000000

 Ion:    4  E_soc:     -0.0386522
 l=   1
     0.0000000    -0.0048499    -0.0048499
    -0.0048499     0.0000000    -0.0048499
    -0.0048499    -0.0048499     0.0000000
 l=   2
     0.0000000    -0.0003470     0.0000000    -0.0003470    -0.0012452
    -0.0003470     0.0000000    -0.0009509    -0.0003470    -0.0002943
     0.0000000    -0.0009509     0.0000000    -0.0009169     0.0000000
    -0.0003470    -0.0003470    -0.0009169     0.0000000    -0.0003283
    -0.0012452    -0.0002943     0.0000000    -0.0003283     0.0000000
 l=   3
     0.0000000     0.0000000     0.0000000     0.0000000     0.0000000     0.0000000     0.0000000
     0.0000000     0.0000000     0.0000000     0.0000000     0.0000000     0.0000000     0.0000000
     0.0000000     0.0000000     0.0000000     0.0000000     0.0000000     0.0000000     0.0000000
     0.0000000     0.0000000     0.0000000     0.0000000     0.0000000     0.0000000     0.0000000
     0.0000000     0.0000000     0.0000000     0.0000000     0.0000000     0.0000000     0.0000000
     0.0000000     0.0000000     0.0000000     0.0000000     0.0000000     0.0000000     0.0000000
     0.0000000     0.0000000     0.0000000     0.0000000     0.0000000     0.0000000     0.0000000

 Ion:    5  E_soc:     -0.0004201
 l=   1
     0.0000000    -0.0000700    -0.0000700
    -0.0000700     0.0000000    -0.0000700
    -0.0000700    -0.0000700     0.0000000
 l=   2
     0.0000000     0.0000000     0.0000000     0.0000000     0.0000000
     0.0000000     0.0000000     0.0000000     0.0000000     0.0000000
     0.0000000     0.0000000     0.0000000     0.0000000     0.0000000
     0.0000000     0.0000000     0.0000000     0.0000000     0.0000000
     0.0000000     0.0000000     0.0000000     0.0000000     0.0000000
 l=   3
     0.0000000     0.0000000     0.0000000     0.0000000     0.0000000     0.0000000     0.0000000
     0.0000000     0.0000000     0.0000000     0.0000000     0.0000000     0.0000000     0.0000000
     0.0000000     0.0000000     0.0000000     0.0000000     0.0000000     0.0000000     0.0000000
     0.0000000     0.0000000     0.0000000     0.0000000     0.0000000     0.0000000     0.0000000
     0.0000000     0.0000000     0.0000000     0.0000000     0.0000000     0.0000000     0.0000000
     0.0000000     0.0000000     0.0000000     0.0000000     0.0000000     0.0000000     0.0000000
     0.0000000     0.0000000     0.0000000     0.0000000     0.0000000     0.0000000     0.0000000

 Ion:    6  E_soc:     -0.0004201
 l=   1
     0.0000000    -0.0000700    -0.0000700
    -0.0000700     0.0000000    -0.0000700
    -0.0000700    -0.0000700     0.0000000
 l=   2
     0.0000000     0.0000000     0.0000000     0.0000000     0.0000000
     0.0000000     0.0000000     0.0000000     0.0000000     0.0000000
     0.0000000     0.0000000     0.0000000     0.0000000     0.0000000
     0.0000000     0.0000000     0.0000000     0.0000000     0.0000000
     0.0000000     0.0000000     0.0000000     0.0000000     0.0000000
 l=   3
     0.0000000     0.0000000     0.0000000     0.0000000     0.0000000     0.0000000     0.0000000
     0.0000000     0.0000000     0.0000000     0.0000000     0.0000000     0.0000000     0.0000000
     0.0000000     0.0000000     0.0000000     0.0000000     0.0000000     0.0000000     0.0000000
     0.0000000     0.0000000     0.0000000     0.0000000     0.0000000     0.0000000     0.0000000
     0.0000000     0.0000000     0.0000000     0.0000000     0.0000000     0.0000000     0.0000000
     0.0000000     0.0000000     0.0000000     0.0000000     0.0000000     0.0000000     0.0000000
     0.0000000     0.0000000     0.0000000     0.0000000     0.0000000     0.0000000     0.0000000

 Ion:    7  E_soc:     -0.0004201
 l=   1
     0.0000000    -0.0000700    -0.0000700
    -0.0000700     0.0000000    -0.0000700
    -0.0000700    -0.0000700     0.0000000
 l=   2
     0.0000000     0.0000000     0.0000000     0.0000000     0.0000000
     0.0000000     0.0000000     0.0000000     0.0000000     0.0000000
     0.0000000     0.0000000     0.0000000     0.0000000     0.0000000
     0.0000000     0.0000000     0.0000000     0.0000000     0.0000000
     0.0000000     0.0000000     0.0000000     0.0000000     0.0000000
 l=   3
     0.0000000     0.0000000     0.0000000     0.0000000     0.0000000     0.0000000     0.0000000
     0.0000000     0.0000000     0.0000000     0.0000000     0.0000000     0.0000000     0.0000000
     0.0000000     0.0000000     0.0000000     0.0000000     0.0000000     0.0000000     0.0000000
     0.0000000     0.0000000     0.0000000     0.0000000     0.0000000     0.0000000     0.0000000
     0.0000000     0.0000000     0.0000000     0.0000000     0.0000000     0.0000000     0.0000000
     0.0000000     0.0000000     0.0000000     0.0000000     0.0000000     0.0000000     0.0000000
     0.0000000     0.0000000     0.0000000     0.0000000     0.0000000     0.0000000     0.0000000

 Ion:    8  E_soc:     -0.0004201
 l=   1
     0.0000000    -0.0000700    -0.0000700
    -0.0000700     0.0000000    -0.0000700
    -0.0000700    -0.0000700     0.0000000
 l=   2
     0.0000000     0.0000000     0.0000000     0.0000000     0.0000000
     0.0000000     0.0000000     0.0000000     0.0000000     0.0000000
     0.0000000     0.0000000     0.0000000     0.0000000     0.0000000
     0.0000000     0.0000000     0.0000000     0.0000000     0.0000000
     0.0000000     0.0000000     0.0000000     0.0000000     0.0000000
 l=   3
     0.0000000     0.0000000     0.0000000     0.0000000     0.0000000     0.0000000     0.0000000
     0.0000000     0.0000000     0.0000000     0.0000000     0.0000000     0.0000000     0.0000000
     0.0000000     0.0000000     0.0000000     0.0000000     0.0000000     0.0000000     0.0000000
     0.0000000     0.0000000     0.0000000     0.0000000     0.0000000     0.0000000     0.0000000
     0.0000000     0.0000000     0.0000000     0.0000000     0.0000000     0.0000000     0.0000000
     0.0000000     0.0000000     0.0000000     0.0000000     0.0000000     0.0000000     0.0000000
     0.0000000     0.0000000     0.0000000     0.0000000     0.0000000     0.0000000     0.0000000

 total amount of memory used by VASP MPI-rank0   387682. kBytes
=======================================================================

   base      :      30000. kBytes
   nonlr-proj:        635. kBytes
   fftplans  :       1658. kBytes
   grid      :       5971. kBytes
   one-center:        248. kBytes
   wavefun   :     349170. kBytes
 
  
  
 General timing and accounting informations for this job:
 ========================================================
  
                  Total CPU time used (sec):      104.928
                            User time (sec):      103.575
                          System time (sec):        1.353
                         Elapsed time (sec):      105.487
  
                   Maximum memory used (kb):      705528.
                   Average memory used (kb):          N/A
  
                          Minor page faults:       636100
                          Major page faults:          129
                 Voluntary context switches:         4414
