
:LABEL1: Calculations in /scratch/rubel/CoSi-berrycpt
:LABEL2: on gra157 at Mon May 26 11:39:06 PM EDT 2025
:LABEL3: using WIEN2k_24.1 (Release 1/8/2024) in /home/rubel/WIEN2k_24.1

:LABEL4: using the command: run_lapw -ec 0.0001 -cc 0.001 -so

 Euler-Maclaurian Coulomb
 Consistent 3/8+Simpson combinations at start/end
 New Mode for Coulomb Integral
 Extension of core to zero
 LDM version in phi
 Fifth-order quadrature in outwin
 Lebedev-Laikov Grid in lapw0


            ---------
:ITE001:  1. ITERATION
            ---------

:NATO :    2 INDEPENDENT AND    8 TOTAL ATOMS IN UNITCELL
       SUBSTANCE: blebleble                                                   

       LATTICE                      = P   
:LAT  : LATTICE CONSTANTS=  8.28289  8.28289  8.28289    1.571    1.571    1.571
:VOL  : UNIT CELL VOLUME =     568.25878
:POT  : POTENTIAL OPTION EX_PBE EC_PBE VX_PBE VC_PBE
       MODE OF CALCULATION IS       = RELA
       NON-SPINPOLARIZED CALCULATION
:IFFT  : FFT-parameters:  162  162  162 Factor: 3.00


   CONVERGENCE PARAMETER FOR PSEUDOCHARGE: NCON=  9
   MAXIMAL VALUE OF RMT(JATOM)*ABSK(NKK) : RK  =44.96350


:VKCOUL :  VK-COUL convergence: 0.323E-09
 Lebedev grid of          350
 :rho_min:  2.000000000000000E-008  1.000000000000000E-009
:VCOUL001 ATOMNUMBER=  1 Co1     VCOUL-ZERO =  0.67719E+00
:EFG001:                        EFG         =     0.06748   *10**21  V / m**2
                               V20  TOT/SRF=     0.05844     0.10673
                               V22  TOT/SRF=     0.00000     0.00000
                               V22M TOT/SRF=     0.00000     0.00000
                               V21  TOT/SRF=     0.00000     0.00000
                               V21M TOT/SRF=     0.00000     0.00000

             -0.03374    0.00000    0.00000       -0.03374    0.00000    0.00000
              0.00000   -0.03374    0.00000        0.00000   -0.03374    0.00000
              0.00000    0.00000    0.06748        0.00000    0.00000    0.06748

         MAIN DIRECTIONS OF THE EFG   1.0000  0.0000  0.0000
                                      0.0000  1.0000  0.0000
                                      0.0000  0.0000  1.0000
:ANG001:  ANGLE WITH OLD X-AXIS =         0.0

:ETA001:                         ASYMM. ETA =     0.00000


:VCOUL002 ATOMNUMBER=  2 Si1     VCOUL-ZERO =  0.39662E+00
:EFG002:                        EFG         =     0.13174   *10**21  V / m**2
                               V20  TOT/SRF=     0.11409     0.15988
                               V22  TOT/SRF=     0.00000     0.00000
                               V22M TOT/SRF=     0.00000     0.00000
                               V21  TOT/SRF=     0.00000     0.00000
                               V21M TOT/SRF=     0.00000     0.00000

             -0.06587    0.00000    0.00000       -0.06587    0.00000    0.00000
              0.00000   -0.06587    0.00000        0.00000   -0.06587    0.00000
              0.00000    0.00000    0.13174        0.00000    0.00000    0.13174

         MAIN DIRECTIONS OF THE EFG   1.0000  0.0000  0.0000
                                      0.0000  1.0000  0.0000
                                      0.0000  0.0000  1.0000
:ANG002:  ANGLE WITH OLD X-AXIS =         0.0

:ETA002:                         ASYMM. ETA =     0.00000


     HELLMANN-FEYNMAN-FORCE IN mRy/a.u. = |F|  Fx       Fy             Fz
:FHF001:   1.ATOM    231.444594891711      0.000000000000      0.000000000000   -231.444594891711

     HELLMANN-FEYNMAN-FORCE IN mRy/a.u. = |F|  Fx       Fy             Fz
:FHF002:   2.ATOM     61.755370972871      0.000000000000      0.000000000000    -61.755370972871

:FIT001: LUSE= 13 SIGMA OF V-XC FIT FOR ATOM  1  0.1783922E-02
:FIT001: LUSE= 13 SIGMA OF V-XC FIT FOR ATOM  1  0.1783922E-02
:FIT002: LUSE= 13 SIGMA OF V-XC FIT FOR ATOM  2  0.2231008E-03
:FIT002: LUSE= 13 SIGMA OF V-XC FIT FOR ATOM  2  0.2231008E-03
:DEN  : DENSITY INTEGRAL  =         -5829.13271869   (Ry)
       ELS_POTENTIAL_AT Z=0 and Z=0.5:   0.00000   0.00000
       ELS_POTENTIAL_AT Y=0 and Y=0.5:   0.00000   0.00000
:VZERO:v0,v0c,v0x  -0.89808   0.00000  -0.89808 v5,v5c,v5x  -0.89808   0.00000  -0.89808
:VZERY:v0,v0c,v0x  -0.89808   0.00000  -0.89808 v5,v5c,v5x  -0.89808   0.00000  -0.89808
:VZERX:v0,v0c,v0x   0.38270   1.18697  -0.80427 v5,v5c,v5x   0.38270   1.18697  -0.80427
:LMAX-WF:   10   Non-Spherical LMAX:   6

          ATOMIC SPHERE DEPENDENT PARAMETERS FOR ATOM  Co1       
:e__0001: OVERALL ENERGY PARAMETER IS    0.3000
          OVERALL BASIS SET ON ATOM IS LAPW
:E1_0001: E( 1)=    0.3000
             APW+lo
:E1_0001: E( 1)=   -3.4579   E(BOTTOM)=   -3.504   E(TOP)=   -3.412  1  2   209
             LOCAL ORBITAL
:E2_0001: E( 2)=    0.6883   E(BOTTOM)=    0.406   E(TOP)=    0.971  0  1   129
             APW+lo
:E0_0001: E( 0)=    0.3000
             APW+lo

          ATOMIC SPHERE DEPENDENT PARAMETERS FOR ATOM  Si1       
:e__0002: OVERALL ENERGY PARAMETER IS    0.3000
          OVERALL BASIS SET ON ATOM IS LAPW
:E0_0002: E( 0)=    0.3000
             APW+lo
:E1_0002: E( 1)=    0.3000
             APW+lo

       K=  0.083333  0.083333  0.083333            1
:RKM  : MATRIX SIZE   767LOs:  64  RKM= 8.00  WEIGHT= 8.00  PGR:    
       EIGENVALUES ARE:
:EIG00001:      -3.4527951   -3.4523903   -3.4519635   -3.4497764   -3.4492340
:EIG00006:      -3.4489984   -3.4485603   -3.4460679   -3.4460088   -3.4450411
:EIG00011:      -3.4448750   -3.4447003   -0.1233927    0.2306720    0.2654884
:EIG00016:       0.3235733    0.4206113    0.4623894    0.4922215    0.5206283
:EIG00021:       0.5680998    0.5962375    0.6110439    0.6171423    0.6215300
:EIG00026:       0.6230613    0.6257304    0.6285737    0.6640182    0.6755359
:EIG00031:       0.6938228    0.7526209    0.7612488    0.7672460    0.7679786
:EIG00036:       0.7811186    0.8232755    0.8412186    0.8667328    1.0121188
:EIG00041:       1.0361072    1.0491460    1.1009809    1.1068831    1.1520510
:EIG00046:       1.1658287    1.2112387    1.2670207    1.2834190    1.3261668
 
:EIG00051:       1.4281484    1.4440543    1.5005587    1.5119669    1.5994076
:EIG00056:       1.6978268    1.6990139    1.7095985    1.8368107    1.9639637
:EIG00061:       1.9647525    2.1070739    2.1451482    2.1767762    2.2681768
:EIG00066:       2.2898870    2.3169736    2.3732386    2.3771057    2.4247803
:EIG00071:       2.4547589    2.4717587    2.5226521    2.5862584    2.6155236
:EIG00076:       2.6510175    2.6762507    2.6826966    2.7188207    2.7516072
:EIG00081:       2.7699709    2.8194882    2.8920851    2.9252094    2.9332623
:EIG00086:       3.0108003    3.0503835    3.0628828    3.0782868    3.0812634
:EIG00091:       3.1121781    3.1517606    3.1837891    3.1921019    3.2601993
:EIG00096:       3.3124029    3.3156436    3.4048869    3.4077141    3.4141687
 
:EIG00101:       3.4861460    3.5121781    3.5149249    3.5722396    3.6042897
:EIG00106:       3.6240046    3.6616511    3.6645164    3.7110621    3.7675862
:EIG00111:       3.7836649    3.8764011    3.9346863    4.0661701    4.1265286
:EIG00116:       4.1564188    4.2281920    4.2768939    4.3004065    4.3142243
:EIG00121:       4.3816951    4.3864387    4.4298020    4.4801822    4.5284005
:EIG00126:       4.5461906    4.5829908    4.5979612    4.6184424    4.6620174
:EIG00131:       4.6729420    4.7156560    4.7241517    4.7376883    4.7968080
:EIG00136:       4.8037140    4.8575649    4.8735188    4.8773130    4.9171970
:EIG00141:       4.9689832    4.9918535    5.0099525    5.0540368    5.0572026
:EIG00146:       5.1362658    5.1630693    5.1653800    5.2097441    5.2220514
 
:EIG00151:       5.2258455    5.2702635    5.2950830    5.3569070    5.3943478
:EIG00156:       5.4194836    5.4367677    5.4723438    5.4932392
       ********************************************************

:KPT   :      NUMBER OF K-POINTS:    11
   0.0   0.0 angle (M,z), angle (M,x) deg
 
        SPIN-ORBIT EIGENVALUES:
     K=  0.083333  0.083333  0.083333            1
      MATRIX SIZE=  318   WEIGHT= 8.00
     EIGENVALUES ARE:
          -3.5381279   -3.5380757   -3.5378136   -3.5378114   -3.5375266
          -3.5374284   -3.5350574   -3.5350538   -3.4074020   -3.4067549
          -3.4066846   -3.4065605   -3.4061334   -3.4060951   -3.4051363
          -3.4047576   -3.4041868   -3.4040356   -3.4032369   -3.4029667
          -3.4010930   -3.4009663   -3.4008398   -3.4006667   -0.1233920
          -0.1233917    0.2303887    0.2309626    0.2652175    0.2657611
           0.3232979    0.3238353    0.4203194    0.4208877    0.4620626
           0.4626682    0.4917658    0.4926103    0.5202900    0.5208084

           0.5678261    0.5681043    0.5944253    0.5977360    0.6108328
           0.6109411    0.6160580    0.6176788    0.6209014    0.6212248
           0.6221987    0.6233567    0.6252359    0.6256632    0.6286598
           0.6294191    0.6629403    0.6651736    0.6752477    0.6758413
           0.6936276    0.6939635    0.7519410    0.7529953    0.7608485
           0.7615818    0.7663637    0.7676118    0.7686979    0.7688722
           0.7800642    0.7828307    0.8218437    0.8248455    0.8413721
           0.8413861    0.8652298    0.8684426    1.0110938    1.0128615

           1.0349338    1.0374271    1.0484000    1.0502903    1.0994791
           1.1025710    1.1053731    1.1084464    1.1519530    1.1522557
           1.1644177    1.1673525    1.2109255    1.2116409    1.2669917
           1.2671321    1.2824420    1.2844283    1.3261606    1.3262145
           1.4277964    1.4285353    1.4434886    1.4446596    1.5004962
           1.5006274    1.5117609    1.5123521    1.5993349    1.5995246
           1.6977776    1.6977880    1.6990556    1.6991143    1.7091503
           1.7100859    1.8366798    1.8369833
       ********************************************************
:GAP (global)   :    0.0    Ry =     0.0   eV (metal)
:GAP (this spin):    0.0    Ry =     0.0   eV (metal)
         Bandranges (emin - emax) and occupancy:
:BAN00068:  68    0.729336    0.767612  1.00000000
:BAN00069:  69    0.741642    0.777302  1.00000000
:BAN00070:  70    0.743747    0.779870  1.00000000
:BAN00071:  71    0.746846    0.783761  1.00000000
:BAN00072:  72    0.748075    0.785193  1.00000000
:BAN00073:  73    0.791250    0.821844  1.00000000
:BAN00074:  74    0.792378    0.824845  1.00000000
:BAN00075:  75    0.806481    0.841372  0.99309319
:BAN00076:  76    0.808673    0.841386  0.99272439
:BAN00077:  77    0.837963    0.930082  0.00758791
:BAN00078:  78    0.838767    0.931436  0.00659451
:BAN00079:  79    0.846981    1.011094  0.00000000
:BAN00080:  80    0.848239    1.012861  0.00000000
:BAN00081:  81    0.980191    1.200887  0.00000000
:BAN00082:  82    0.980866    1.200994  0.00000000
:BAN00083:  83    0.995650    1.256478  0.00000000
        Energy to separate low and high energystates:   -0.17339


:NOE  : NUMBER OF ELECTRONS          =   76.000

:FER  : F E R M I - ENERGY(TETRAH.M.)=   0.8404413630
:GMA  : POTENTIAL AND CHARGE CUT-OFF  20.00 Ry**.5

:POS001: ATOM   -1 X,Y,Z = 0.85410 0.64590 0.35410  MULT= 4  ZZ= 27.000  Co1       

       LMMAX 17
       LM=   0 0  1 0  2 0  3 0  3 3 -3 3  4 0  4 3 -4 3  5 0  5 3 -5 3  6 0  6 3 -6 3  6 6 -6 6


:CHA001: TOTAL VALENCE CHARGE INSIDE SPHERE   1 =  14.5774    (RMT=  2.2500 )
:PCS001: PARTIAL CHARGES SPHERE =  1 S,P,D,F,PZ,PXY, D-Z2,D-XY,X2Y2,D-XZ,YZ 
:QTL001: 0.3846 6.4937 7.6722 0.0229 2.1711 4.3226 0.0000 1.5604 3.0795 3.0323 0.0000 0.0000
        Q-s-low E-s-low   Q-p-low E-p-low   Q-d-low E-d-low   Q-f-low E-f-low
:EPL001:  0.0000 10.0000    5.9849 -3.4485    0.0001 -3.4474    0.0000 10.0000
        Q-s-hi  E-s-hi    Q-p-hi  E-p-hi    Q-d-hi  E-d-hi    Q-f-hi  E-f-hi 
:EPH001:  0.3845  0.3094    0.5088  0.5007    7.6721  0.6677    0.0229  0.5937
:VZZ001: EFG INSIDE SPHERE   1 =     0.274902      UP TO R =   2.25000

:POS002: ATOM   -2 X,Y,Z = 0.15654 0.34346 0.65654  MULT= 4  ZZ= 14.000  Si1       

       LMMAX 17
       LM=   0 0  1 0  2 0  3 0  3 3 -3 3  4 0  4 3 -4 3  5 0  5 3 -5 3  6 0  6 3 -6 3  6 6 -6 6


:CHA002: TOTAL VALENCE CHARGE INSIDE SPHERE   2 =   1.4885    (RMT=  1.9300 )
:PCS002: PARTIAL CHARGES SPHERE =  2 S,P,D,F,PZ,PXY, D-Z2,D-XY,X2Y2,D-XZ,YZ 
:QTL002: 0.6178 0.7235 0.1321 0.0125 0.2706 0.4529 0.0000 0.0270 0.0454 0.0598 0.0000 0.0000
        Q-s-low E-s-low   Q-p-low E-p-low   Q-d-low E-d-low   Q-f-low E-f-low
:EPL002:  0.0002 -3.4469    0.0003 -3.4473    0.0002 -3.4476    0.0001 -3.4396
        Q-s-hi  E-s-hi    Q-p-hi  E-p-hi    Q-d-hi  E-d-hi    Q-f-hi  E-f-hi 
:EPH002:  0.6177  0.2182    0.7232  0.5138    0.1319  0.6211    0.0124  0.6512
:VZZ002: EFG INSIDE SPHERE   2 =    -3.086750      UP TO R =   1.93000

:CHA  : TOTAL VALENCE CHARGE INSIDE UNIT CELL =      76.000000

:SUM  : SUM OF EIGENVALUES =         -53.070922831


        1.ATOM      Co1                   5 CORE STATES
       CORE-FORCE in mRy/a.u. = |F|      Fx             Fy             Fz
:FCO001:   1.ATOM    109.232703927202      0.000000000000      0.000000000000    109.232703927202

:1S 001: 1S                -556.526768927 Ry
:2S 001: 2S                 -64.629267609 Ry
:2PP001: 2P*                -55.873487244 Ry
:2P 001: 2P                 -54.784111671 Ry
:3S 001: 3S                  -6.142883395 Ry

        2.ATOM      Si1                   4 CORE STATES
       CORE-FORCE in mRy/a.u. = |F|      Fx             Fy             Fz
:FCO002:   2.ATOM     48.576742657574      0.000000000000      0.000000000000     48.576742657574

:1S 002: 1S                -129.835118973 Ry
:2S 002: 2S                  -8.853633933 Ry
:2PP002: 2P*                 -5.654780560 Ry
:2P 002: 2P                  -5.607388351 Ry
:CINT001 Core Integral Atom   1   11.99889049
:CINT002 Core Integral Atom   2    9.99431476

       DENSITY AT NUCLEUS
        JATOM        VALENCE       SEMI-CORE          CORE           TOTAL
:RTO001:   1        7.170339        0.000000    17495.626149    17502.796489
:RTO002:   2        6.447214        0.000000     1886.018395     1892.465609
:K-LIST:Reduced k-vector list     6435     468
     
       CHARGES OF NEW CHARGE DENSITY
:NTO   : INTERSTITIAL CHARGE  =    11.737184
:NPC   : INTERSTITIAL CHARGE  =    18.969616
:NTO001: CHARGE SPHERE   1    =    26.576288
:NTO002: CHARGE SPHERE   2    =    11.482773

:NEC01: NUCLEAR AND ELECTRONIC CHARGE    164.00000000   163.97342823 Plane Wave
     
       CHARGES OF OLD CHARGE DENSITY
:OTO   : INTERSTITIAL CHARGE  =    12.053221
:OPC   : INTERSTITIAL CHARGE  =    26.075932
:OTO001: CHARGE SPHERE   1    =    26.147896
:OTO002: CHARGE SPHERE   2    =    11.838799

:NEC02: NUCLEAR AND ELECTRONIC CHARGE    164.00000000   164.00000227 Total

:VSOld: Total Rescaling   0.99999999
     
       CONVERGENCE TEST
:DTO001: DIFFERENCE IN SPHERE  1 =  0.3273807
:DTO002: DIFFERENCE IN SPHERE  2 =  0.2816192

:DIS  :  CHARGE DISTANCE      (  0.3273807 for atom    1 spin 1)      0.3045000
 
******************************************************
* Multisecant Mixing Release 10.8.9                  *
* Standard Mode with step bound                      *
* Multisecant MSR1 Algorithm                         *
* Regularization       2.000E-04                     *
* Minimum Greed        1.000E-03                     *
* Max Number of Memory Steps    8                    *
******************************************************
 

:FULLRMS/Atom   0.9991819820
:PLANE:  PW /ATOM     3.11410 DISTAN   1.33E+00 %  4.27E+01
:CHARG:  CLM/ATOM   258.60809 DISTAN   4.74E-01 %  1.83E-01

Step History
        Dmix         Dmixt        Red     Pred      Step      Lambda    MagAbs    Beta
  1   3.5000E-01   3.5000E-01  1.00E+00  1.00E+00  1.00E-01  1.00E+00  9.89E-02  1.00E+00
:NOTE :  :INFO: Pratt in use
:TRUST:  Step  1.0E-01 Charge  3.3E-02 (e) CTO  3.0E-01 (e) PW  2.1E-01 (e)
:DIRP : |PRAT|= 6.586E-02 |PRATT|= 2.662E+00 ANGLE=   0.0 DEGREES
:DIRQ : |PRAT|= 2.346E-02 |PRATT|= 9.482E-01 ANGLE=   0.0 DEGREES
:DIRT : |PRAT|= 6.991E-02 |PRATT|= 2.826E+00 ANGLE=   0.0 DEGREES
  
:INFO: Pseudo Compensation for mesh of   64
  
:INFO: Pseudo Compensation Rescaling     1.00004E+00
  
:MIX  :  PRATT  REGULARIZATION:  2.00E-04 GREED: 0.02474                 
     
       CHARGES OF MIXED CHARGE DENSITY
:CTO   : INTERSTITIAL CHARGE  =    12.046060
:CPC   : INTERSTITIAL CHARGE  =    21.962740
:CTO001: CHARGE SPHERE   1    =    26.158493
:CTO002: CHARGE SPHERE   2    =    11.829992

:NEC03: NUCLEAR AND ELECTRONIC CHARGE    164.00000000   164.00000000

PW CHANGE     H    K    L             Current                    Change               Residue
:PTO001:      0    0    0  5.98473820E-02 0.00000000E+00 -7.251E-03  0.000E+00 -1.294E-02  0.000E+00
:PTO003:     -1   -1    0 -6.14002563E-18 5.68478502E-03 -6.633E-18 -2.366E-03  5.384E-19  8.792E-03
:PTO004:     -1   -1   -1  9.14644088E-03 1.90015400E-04 -4.451E-03 -2.431E-04 -4.751E-03 -1.685E-03
:PTO005:     -1   -1    1  9.14644088E-03-1.90015400E-04 -4.451E-03  2.431E-04 -4.751E-03  1.685E-03
:PTO006:     -2    0    0 -1.27313469E-02-7.15916426E-18  9.919E-03 -7.159E-18  1.285E-02  0.000E+00
:PTO007:     -2   -1    0 -3.43485203E-02-3.96172578E-17  4.403E-02 -3.962E-17  6.468E-02  0.000E+00
:PTO008:     -2    0   -1 -2.35403110E-17 5.71637478E-03 -2.413E-17 -3.909E-03 -3.904E-19 -6.375E-03
:PTO009:     -2   -1   -1 -9.83962121E-03-2.44886043E-04  2.367E-02 -9.518E-04  3.856E-02 -1.002E-03
:PTO010:     -2   -1    1  9.83962121E-03-2.44886043E-04 -2.367E-02 -9.518E-04 -3.856E-02 -1.002E-03
:PTO011:     -2   -2    0 -2.39789165E-04 3.24755286E-18 -4.639E-03  3.248E-18 -3.884E-03  0.000E+00
:PTO013:     -2   -2   -1 -2.08698342E-03-2.18758265E-04 -9.992E-03 -5.633E-04 -1.500E-02 -1.348E-03
:PTO014:     -2   -2    1  2.08698342E-03-2.18758265E-04  9.992E-03 -5.633E-04  1.500E-02 -1.348E-03

:ENE  : ********** TOTAL ENERGY IN Ry =       -13468.59516700

:FOR001:   1.ATOM        122.212          0.000          0.000       -122.212 partial forces
:FOR002:   2.ATOM         13.179          0.000          0.000        -13.179 partial forces
       TOTAL FORCE WITH RESPECT TO THE GLOBAL COORDINATE SYSTEM:
:FGL001:   1.ATOM               -70.559068147    70.559068147   -70.559068147 partial forces
:FGL002:   2.ATOM                -7.608684605     7.608684605    -7.608684605 partial forces
 Euler-Maclaurian Coulomb
 Consistent 3/8+Simpson combinations at start/end
 New Mode for Coulomb Integral
 Extension of core to zero
 LDM version in phi
 Fifth-order quadrature in outwin
 Lebedev-Laikov Grid in lapw0


            ---------
:ITE002:  2. ITERATION
            ---------

:NATO :    2 INDEPENDENT AND    8 TOTAL ATOMS IN UNITCELL
       SUBSTANCE: blebleble                                                   

       LATTICE                      = P   
:LAT  : LATTICE CONSTANTS=  8.28289  8.28289  8.28289    1.571    1.571    1.571
:VOL  : UNIT CELL VOLUME =     568.25878
:POT  : POTENTIAL OPTION EX_PBE EC_PBE VX_PBE VC_PBE
       MODE OF CALCULATION IS       = RELA
       NON-SPINPOLARIZED CALCULATION
:IFFT  : FFT-parameters:  162  162  162 Factor: 3.00


   CONVERGENCE PARAMETER FOR PSEUDOCHARGE: NCON=  9
   MAXIMAL VALUE OF RMT(JATOM)*ABSK(NKK) : RK  =44.96350


:VKCOUL :  VK-COUL convergence: 0.296E-09
 Lebedev grid of          350
 :rho_min:  2.000000000000000E-008  1.000000000000000E-009
:VCOUL001 ATOMNUMBER=  1 Co1     VCOUL-ZERO =  0.67098E+00
:EFG001:                        EFG         =     0.07888   *10**21  V / m**2
                               V20  TOT/SRF=     0.06831     0.10868
                               V22  TOT/SRF=     0.00000     0.00000
                               V22M TOT/SRF=     0.00000     0.00000
                               V21  TOT/SRF=     0.00000     0.00000
                               V21M TOT/SRF=     0.00000     0.00000

             -0.03944    0.00000    0.00000       -0.03944    0.00000    0.00000
              0.00000   -0.03944    0.00000        0.00000   -0.03944    0.00000
              0.00000    0.00000    0.07888        0.00000    0.00000    0.07888

         MAIN DIRECTIONS OF THE EFG   1.0000  0.0000  0.0000
                                      0.0000  1.0000  0.0000
                                      0.0000  0.0000  1.0000
:ANG001:  ANGLE WITH OLD X-AXIS =         0.0

:ETA001:                         ASYMM. ETA =     0.00000


:VCOUL002 ATOMNUMBER=  2 Si1     VCOUL-ZERO =  0.38560E+00
:EFG002:                        EFG         =     0.05068   *10**21  V / m**2
                               V20  TOT/SRF=     0.04389     0.15279
                               V22  TOT/SRF=     0.00000     0.00000
                               V22M TOT/SRF=     0.00000     0.00000
                               V21  TOT/SRF=     0.00000     0.00000
                               V21M TOT/SRF=     0.00000     0.00000

             -0.02534    0.00000    0.00000       -0.02534    0.00000    0.00000
              0.00000   -0.02534    0.00000        0.00000   -0.02534    0.00000
              0.00000    0.00000    0.05068        0.00000    0.00000    0.05068

         MAIN DIRECTIONS OF THE EFG   1.0000  0.0000  0.0000
                                      0.0000  1.0000  0.0000
                                      0.0000  0.0000  1.0000
:ANG002:  ANGLE WITH OLD X-AXIS =         0.0

:ETA002:                         ASYMM. ETA =     0.00000


     HELLMANN-FEYNMAN-FORCE IN mRy/a.u. = |F|  Fx       Fy             Fz
:FHF001:   1.ATOM    211.995404647152      0.000000000000      0.000000000000   -211.995404647152

     HELLMANN-FEYNMAN-FORCE IN mRy/a.u. = |F|  Fx       Fy             Fz
:FHF002:   2.ATOM     50.001637001630      0.000000000000      0.000000000000    -50.001637001630

:FIT001: LUSE= 13 SIGMA OF V-XC FIT FOR ATOM  1  0.1774838E-02
:FIT001: LUSE= 13 SIGMA OF V-XC FIT FOR ATOM  1  0.1774838E-02
:FIT002: LUSE= 13 SIGMA OF V-XC FIT FOR ATOM  2  0.2159636E-03
:FIT002: LUSE= 13 SIGMA OF V-XC FIT FOR ATOM  2  0.2159636E-03
:DEN  : DENSITY INTEGRAL  =         -5828.47482173   (Ry)
       ELS_POTENTIAL_AT Z=0 and Z=0.5:   0.00000   0.00000
       ELS_POTENTIAL_AT Y=0 and Y=0.5:   0.00000   0.00000
:VZERO:v0,v0c,v0x  -0.87622   0.00000  -0.87622 v5,v5c,v5x  -0.87622   0.00000  -0.87622
:VZERY:v0,v0c,v0x  -0.87622   0.00000  -0.87622 v5,v5c,v5x  -0.87622   0.00000  -0.87622
:VZERX:v0,v0c,v0x   0.32410   1.16345  -0.83935 v5,v5c,v5x   0.32410   1.16345  -0.83935
:LMAX-WF:   10   Non-Spherical LMAX:   6

          ATOMIC SPHERE DEPENDENT PARAMETERS FOR ATOM  Co1       
:e__0001: OVERALL ENERGY PARAMETER IS    0.5270
          OVERALL BASIS SET ON ATOM IS LAPW
:E1_0001: E( 1)=    0.5270
             APW+lo
:E1_0001: E( 1)=   -3.4564   E(BOTTOM)=   -3.503   E(TOP)=   -3.410  1  2   215
             LOCAL ORBITAL
:E2_0001: E( 2)=    0.6885   E(BOTTOM)=    0.405   E(TOP)=    0.972  0  1   130
             APW+lo
:E0_0001: E( 0)=    0.5270
             APW+lo

          ATOMIC SPHERE DEPENDENT PARAMETERS FOR ATOM  Si1       
:e__0002: OVERALL ENERGY PARAMETER IS    0.5270
          OVERALL BASIS SET ON ATOM IS LAPW
:E0_0002: E( 0)=    0.5270
             APW+lo
:E1_0002: E( 1)=    0.5270
             APW+lo

       K=  0.083333  0.083333  0.083333            1
:RKM  : MATRIX SIZE   767LOs:  64  RKM= 8.00  WEIGHT= 8.00  PGR:    
       EIGENVALUES ARE:
:EIG00001:      -3.4513288   -3.4509221   -3.4504934   -3.4481643   -3.4476622
:EIG00006:      -3.4474755   -3.4469432   -3.4444362   -3.4443772   -3.4434099
:EIG00011:      -3.4432443   -3.4430659   -0.1323022    0.2216524    0.2569001
:EIG00016:       0.3157795    0.4135890    0.4561922    0.4865492    0.5150614
:EIG00021:       0.5641237    0.5925776    0.6087759    0.6143258    0.6198371
:EIG00026:       0.6214004    0.6238617    0.6257424    0.6610974    0.6723652
:EIG00031:       0.6908536    0.7521539    0.7603031    0.7672180    0.7681391
:EIG00036:       0.7801901    0.8219039    0.8399030    0.8649822    1.0079901
:EIG00041:       1.0313893    1.0448708    1.0945961    1.1009401    1.1455831
:EIG00046:       1.1602025    1.2048978    1.2598596    1.2767747    1.3191223
 
:EIG00051:       1.4206624    1.4371318    1.4916337    1.5035267    1.5910671
:EIG00056:       1.6890466    1.6898204    1.7004498    1.8272810    1.9547050
:EIG00061:       1.9554986    2.0978163    2.1342031    2.1658708    2.2571009
:EIG00066:       2.2789787    2.3065204    2.3623892    2.3663347    2.4136741
:EIG00071:       2.4437022    2.4612299    2.5107855    2.5761189    2.6041397
:EIG00076:       2.6412739    2.6641571    2.6713909    2.7083216    2.7404656
:EIG00081:       2.7589550    2.8084535    2.8803236    2.9131138    2.9232410
:EIG00086:       3.0006102    3.0391711    3.0515922    3.0668795    3.0700837
:EIG00091:       3.1025445    3.1412265    3.1715775    3.1813594    3.2478466
:EIG00096:       3.3007409    3.3043673    3.3915778    3.3955066    3.4020373
 
:EIG00101:       3.4743039    3.4995734    3.5022559    3.5593827    3.5922995
:EIG00106:       3.6112026    3.6481666    3.6510652    3.6985102    3.7521966
:EIG00111:       3.7683681    3.8612564    3.9163452    4.0510981    4.1103743
:EIG00116:       4.1375127    4.2103275    4.2596865    4.2819634    4.2949760
:EIG00121:       4.3607881    4.3664382    4.4120088    4.4597532    4.5089398
:EIG00126:       4.5254359    4.5614742    4.5773831    4.5984380    4.6435335
:EIG00131:       4.6533998    4.6950876    4.7062740    4.7166126    4.7784983
:EIG00136:       4.7860100    4.8349748    4.8495573    4.8546670    4.8986085
:EIG00141:       4.9497865    4.9759456    4.9906544    5.0364275    5.0415468
:EIG00146:       5.1145186    5.1439431    5.1441155    5.1861528    5.2002454
 
:EIG00151:       5.2029227    5.2488582    5.2765167    5.3357660    5.3718826
:EIG00156:       5.4007464    5.4142814    5.4508933    5.4673894    5.5070836
:EIG00161:       5.5138774    5.5719959    5.5876859    5.5942956    5.6231362
:EIG00166:       5.6354032    5.6481201
       ********************************************************

:KPT   :      NUMBER OF K-POINTS:    11
   0.0   0.0 angle (M,z), angle (M,x) deg
 
        SPIN-ORBIT EIGENVALUES:
     K=  0.083333  0.083333  0.083333            1
      MATRIX SIZE=  334   WEIGHT= 8.00
     EIGENVALUES ARE:
          -3.5365202   -3.5364672   -3.5362021   -3.5362004   -3.5359182
          -3.5358161   -3.5334345   -3.5334324   -3.4059144   -3.4052539
          -3.4051718   -3.4050624   -3.4046057   -3.4045736   -3.4036381
          -3.4032554   -3.4026076   -3.4024685   -3.4016502   -3.4013854
          -3.3994942   -3.3993670   -3.3992391   -3.3990657   -0.1323016
          -0.1323013    0.2213690    0.2219435    0.2566286    0.2571741
           0.3155051    0.3160419    0.4132943    0.4138702    0.4558813
           0.4564592    0.4861081    0.4869288    0.5147323    0.5152406

           0.5638768    0.5641112    0.5908125    0.5940427    0.6085621
           0.6086894    0.6132242    0.6148820    0.6192531    0.6195335
           0.6206074    0.6215815    0.6233416    0.6237681    0.6257838
           0.6266800    0.6600845    0.6621807    0.6720782    0.6726681
           0.6906841    0.6909651    0.7514945    0.7524833    0.7599832
           0.7606398    0.7663663    0.7677333    0.7685237    0.7690285
           0.7791814    0.7819038    0.8204737    0.8234613    0.8400562
           0.8400626    0.8634553    0.8667121    1.0069464    1.0087362

           1.0302127    1.0327227    1.0441202    1.0460197    1.0930650
           1.0962188    1.0993919    1.1025412    1.1454888    1.1457880
           1.1587994    1.1617211    1.2046103    1.2052765    1.2598367
           1.2599650    1.2757808    1.2778002    1.3191009    1.3191846
           1.4202967    1.4210623    1.4365664    1.4377329    1.4915758
           1.4916968    1.5033280    1.5039075    1.5909938    1.5911843
           1.6889504    1.6889985    1.6898681    1.6899698    1.6999853
           1.7009541    1.8271461    1.8274577
       ********************************************************
:GAP (global)   :    0.0    Ry =     0.0   eV (metal)
:GAP (this spin):    0.0    Ry =     0.0   eV (metal)
         Bandranges (emin - emax) and occupancy:
:BAN00068:  68    0.728386    0.767733  1.00000000
:BAN00069:  69    0.741157    0.776640  1.00000000
:BAN00070:  70    0.743323    0.779254  1.00000000
:BAN00071:  71    0.746380    0.783558  1.00000000
:BAN00072:  72    0.747650    0.785053  1.00000000
:BAN00073:  73    0.791269    0.820474  1.00000000
:BAN00074:  74    0.792357    0.823461  1.00000000
:BAN00075:  75    0.805616    0.840056  0.99366450
:BAN00076:  76    0.807821    0.840063  0.99339867
:BAN00077:  77    0.837391    0.926953  0.00695519
:BAN00078:  78    0.838187    0.928359  0.00598163
:BAN00079:  79    0.846140    1.006946  0.00000000
:BAN00080:  80    0.847406    1.008736  0.00000000
:BAN00081:  81    0.977158    1.192550  0.00000000
:BAN00082:  82    0.977772    1.192645  0.00000000
:BAN00083:  83    0.992068    1.248240  0.00000000
        Energy to separate low and high energystates:   -0.18230


:NOE  : NUMBER OF ELECTRONS          =   76.000

:FER  : F E R M I - ENERGY(TETRAH.M.)=   0.8393433540
:GMA  : POTENTIAL AND CHARGE CUT-OFF  20.00 Ry**.5

:POS001: ATOM   -1 X,Y,Z = 0.85410 0.64590 0.35410  MULT= 4  ZZ= 27.000  Co1       

       LMMAX 17
       LM=   0 0  1 0  2 0  3 0  3 3 -3 3  4 0  4 3 -4 3  5 0  5 3 -5 3  6 0  6 3 -6 3  6 6 -6 6


:CHA001: TOTAL VALENCE CHARGE INSIDE SPHERE   1 =  14.5365    (RMT=  2.2500 )
:PCS001: PARTIAL CHARGES SPHERE =  1 S,P,D,F,PZ,PXY, D-Z2,D-XY,X2Y2,D-XZ,YZ 
:QTL001: 0.3843 6.4954 7.6293 0.0233 2.1717 4.3237 0.0000 1.5522 3.0618 3.0154 0.0000 0.0000
        Q-s-low E-s-low   Q-p-low E-p-low   Q-d-low E-d-low   Q-f-low E-f-low
:EPL001:  0.0000 10.0000    5.9848 -3.4470    0.0001 -3.4467    0.0000 10.0000
        Q-s-hi  E-s-hi    Q-p-hi  E-p-hi    Q-d-hi  E-d-hi    Q-f-hi  E-f-hi 
:EPH001:  0.3843  0.3031    0.5106  0.4948    7.6293  0.6667    0.0233  0.5901
:VZZ001: EFG INSIDE SPHERE   1 =     0.258978      UP TO R =   2.25000

:POS002: ATOM   -2 X,Y,Z = 0.15654 0.34346 0.65654  MULT= 4  ZZ= 14.000  Si1       

       LMMAX 17
       LM=   0 0  1 0  2 0  3 0  3 3 -3 3  4 0  4 3 -4 3  5 0  5 3 -5 3  6 0  6 3 -6 3  6 6 -6 6


:CHA002: TOTAL VALENCE CHARGE INSIDE SPHERE   2 =   1.5064    (RMT=  1.9300 )
:PCS002: PARTIAL CHARGES SPHERE =  2 S,P,D,F,PZ,PXY, D-Z2,D-XY,X2Y2,D-XZ,YZ 
:QTL002: 0.6223 0.7343 0.1347 0.0127 0.2737 0.4606 0.0000 0.0274 0.0463 0.0610 0.0000 0.0000
        Q-s-low E-s-low   Q-p-low E-p-low   Q-d-low E-d-low   Q-f-low E-f-low
:EPL002:  0.0002 -3.4451    0.0003 -3.4456    0.0002 -3.4461    0.0001 -3.4398
        Q-s-hi  E-s-hi    Q-p-hi  E-p-hi    Q-d-hi  E-d-hi    Q-f-hi  E-f-hi 
:EPH002:  0.6221  0.2105    0.7339  0.5086    0.1345  0.6184    0.0126  0.6495
:VZZ002: EFG INSIDE SPHERE   2 =    -3.044369      UP TO R =   1.93000

:CHA  : TOTAL VALENCE CHARGE INSIDE UNIT CELL =      76.000000

:SUM  : SUM OF EIGENVALUES =         -53.216699979


        1.ATOM      Co1                   5 CORE STATES
       CORE-FORCE in mRy/a.u. = |F|      Fx             Fy             Fz
:FCO001:   1.ATOM     98.767847040231      0.000000000000      0.000000000000     98.767847040231

:1S 001: 1S                -556.522793480 Ry
:2S 001: 2S                 -64.625134382 Ry
:2PP001: 2P*                -55.869333689 Ry
:2P 001: 2P                 -54.779960052 Ry
:3S 001: 3S                  -6.141006713 Ry

        2.ATOM      Si1                   4 CORE STATES
       CORE-FORCE in mRy/a.u. = |F|      Fx             Fy             Fz
:FCO002:   2.ATOM     38.422055427119      0.000000000000      0.000000000000     38.422055427119

:1S 002: 1S                -129.853372566 Ry
:2S 002: 2S                  -8.869999231 Ry
:2PP002: 2P*                 -5.671254442 Ry
:2P 002: 2P                  -5.623852854 Ry
:CINT001 Core Integral Atom   1   11.99888575
:CINT002 Core Integral Atom   2    9.99433159

       DENSITY AT NUCLEUS
        JATOM        VALENCE       SEMI-CORE          CORE           TOTAL
:RTO001:   1        7.150619        0.000000    17495.564437    17502.715056
:RTO002:   2        6.486440        0.000000     1886.040056     1892.526496
:K-LIST:Reduced k-vector list     6435     468
     
       CHARGES OF NEW CHARGE DENSITY
:NTO   : INTERSTITIAL CHARGE  =    11.829073
:NPC   : INTERSTITIAL CHARGE  =    19.064020
:NTO001: CHARGE SPHERE   1    =    26.535394
:NTO002: CHARGE SPHERE   2    =    11.500722

:NEC01: NUCLEAR AND ELECTRONIC CHARGE    164.00000000   163.97353619 Plane Wave
     
       CHARGES OF OLD CHARGE DENSITY
:OTO   : INTERSTITIAL CHARGE  =    12.046060
:OPC   : INTERSTITIAL CHARGE  =    21.962740
:OTO001: CHARGE SPHERE   1    =    26.158493
:OTO002: CHARGE SPHERE   2    =    11.829992

:NEC02: NUCLEAR AND ELECTRONIC CHARGE    164.00000000   164.00000000
     
       CONVERGENCE TEST
:DTO001: DIFFERENCE IN SPHERE  1 =  0.2692195
:DTO002: DIFFERENCE IN SPHERE  2 =  0.2623608

:DIS  :  CHARGE DISTANCE      (  0.2692195 for atom    1 spin 1)      0.2657902
 
******************************************************
* Multisecant Mixing Release 10.8.9                  *
* Standard Mode with step bound                      *
* Multisecant MSR1 Algorithm                         *
* Regularization       2.000E-04                     *
* Minimum Greed        1.000E-03                     *
* Max Number of Memory Steps    8                    *
******************************************************
 

:FULLRMS/Atom   0.4465330344
:PLANE:  PW /ATOM     2.61562 DISTAN   4.69E-01 %  1.79E+01
:CHARG:  CLM/ATOM   258.60580 DISTAN   4.22E-01 %  1.63E-01
:INFOF Fractnow,Tolerror,TolReject,qtot     0.447     1.667     3.000     0.266 F F F

Step History
        Dmix         Dmixt        Red     Pred      Step      Lambda    MagAbs    Beta
  1   3.5000E-01   3.5000E-01  1.00E+00  1.00E+00  1.00E-01  1.00E+00  9.89E-02  1.00E+00
  2   2.4737E-02   2.4737E-02  1.00E+00  1.00E+00  1.00E-01  1.00E+00  9.89E-02  1.00E+00
:NOTE :  Number of Memory Steps    1 Skipping    0
  2.473695949486832E-002  9.867352983473840E-002

:PREDicted Charge, CTotal, PW Trust   3.19E-02   2.33E-01   5.46E-01
:PREDicted DMix, Beta, BLim           7.42E-02   1.00E+00   1.20E-01

Eigenvalues, unscaled except for SY+YY with Slambda=   1.00000 Ylambda=   1.00000
   #     SY Real       SY Imag         SS            YY        SY+YY Real     SY+YY Imag
   1   4.97322E-01   0.00000E+00   4.95164E-01   5.02678E-01   1.00000E+00   0.00000E+00
 
:TRUST:  Step  1.1E-01 Charge  2.4E-02 (e) CTO  2.0E-01 (e) PW  1.6E-01 (e)
:DTRUS:  Lambda   4.119E+00 Increment   2.753E-14 Iterations    54 DMIX   1.450E-02
:DIRM :  MEMORY  1/8  RED  0.45 PRED  1.00 NEXT  0.94
:NOTE :  Limited by Atoms F by Step T

:DIRP : |MSR1|= 1.407E-01 |PRATT|= 9.389E-01 ANGLE=  39.6 DEGREES
:DIRQ : |MSR1|= 1.347E-02 |PRATT|= 8.447E-01 ANGLE=   2.1 DEGREES
:DIRT : |MSR1|= 1.413E-01 |PRATT|= 1.263E+00 ANGLE=  50.7 DEGREES
:MIX  :  MSD1   REGULARIZATION:  2.00E-04 GREED: 0.07421  LMStep 0.20  0.1119 Step           
     
       CHARGES OF MIXED CHARGE DENSITY
:CTO   : INTERSTITIAL CHARGE  =    12.043312
:CPC   : INTERSTITIAL CHARGE  =    21.637690
:CTO001: CHARGE SPHERE   1    =    26.164462
:CTO002: CHARGE SPHERE   2    =    11.824710

:NEC03: NUCLEAR AND ELECTRONIC CHARGE    164.00000000   164.00000000

PW CHANGE     H    K    L             Current                    Change               Residue
:PTO001:      0    0    0  5.92705347E-02 0.00000000E+00 -5.768E-04  0.000E+00 -5.361E-03  0.000E+00
:PTO003:     -1   -1    0  3.47123848E-19 5.66896264E-03 -9.688E-22 -1.582E-05  6.401E-19  1.045E-02
:PTO004:     -1   -1   -1  8.83429892E-03 1.54449780E-04 -3.121E-04 -3.557E-05 -3.133E-04 -1.335E-03
:PTO005:     -1   -1    1  8.83429892E-03-1.54449780E-04 -3.121E-04  3.557E-05 -3.133E-04  1.335E-03
:PTO006:     -2    0    0 -1.20049104E-02 0.00000000E+00  7.264E-04  0.000E+00  2.864E-03  0.000E+00
:PTO007:     -2   -1    0 -3.10084216E-02 0.00000000E+00  3.340E-03  0.000E+00  2.061E-02  0.000E+00
:PTO008:     -2    0   -1  3.31113530E-19 5.40749432E-03 -1.891E-20 -3.089E-04 -1.603E-19 -2.619E-03
:PTO009:     -2   -1   -1 -7.98654256E-03-3.10909438E-04  1.853E-03 -6.602E-05  1.497E-02 -2.727E-05
:PTO010:     -2   -1    1  7.98654256E-03-3.10909438E-04 -1.853E-03 -6.602E-05 -1.497E-02 -2.727E-05
:PTO011:     -2   -2    0 -5.50028682E-04 0.00000000E+00 -3.102E-04  0.000E+00  7.201E-04  0.000E+00
:PTO013:     -2   -2   -1 -2.85150048E-03-2.69403884E-04 -7.645E-04 -5.065E-05 -5.089E-03 -8.023E-04
:PTO014:     -2   -2    1  2.85150048E-03-2.69403884E-04  7.645E-04 -5.065E-05  5.089E-03 -8.023E-04

:ENE  : ********** TOTAL ENERGY IN Ry =       -13468.57568423

:FOR001:   1.ATOM        113.228          0.000          0.000       -113.228 partial forces
:FOR002:   2.ATOM         11.580          0.000          0.000        -11.580 partial forces
       TOTAL FORCE WITH RESPECT TO THE GLOBAL COORDINATE SYSTEM:
:FGL001:   1.ATOM               -65.371960864    65.371960864   -65.371960864 partial forces
:FGL002:   2.ATOM                -6.685474539     6.685474539    -6.685474539 partial forces
 Euler-Maclaurian Coulomb
 Consistent 3/8+Simpson combinations at start/end
 New Mode for Coulomb Integral
 Extension of core to zero
 LDM version in phi
 Fifth-order quadrature in outwin
 Lebedev-Laikov Grid in lapw0


            ---------
:ITE003:  3. ITERATION
            ---------

:NATO :    2 INDEPENDENT AND    8 TOTAL ATOMS IN UNITCELL
       SUBSTANCE: blebleble                                                   

       LATTICE                      = P   
:LAT  : LATTICE CONSTANTS=  8.28289  8.28289  8.28289    1.571    1.571    1.571
:VOL  : UNIT CELL VOLUME =     568.25878
:POT  : POTENTIAL OPTION EX_PBE EC_PBE VX_PBE VC_PBE
       MODE OF CALCULATION IS       = RELA
       NON-SPINPOLARIZED CALCULATION
:IFFT  : FFT-parameters:  162  162  162 Factor: 3.00


   CONVERGENCE PARAMETER FOR PSEUDOCHARGE: NCON=  9
   MAXIMAL VALUE OF RMT(JATOM)*ABSK(NKK) : RK  =44.96350


:VKCOUL :  VK-COUL convergence: 0.297E-09
 Lebedev grid of          350
 :rho_min:  2.000000000000000E-008  1.000000000000000E-009
:VCOUL001 ATOMNUMBER=  1 Co1     VCOUL-ZERO =  0.67124E+00
:EFG001:                        EFG         =     0.08568   *10**21  V / m**2
                               V20  TOT/SRF=     0.07420     0.10977
                               V22  TOT/SRF=     0.00000     0.00000
                               V22M TOT/SRF=     0.00000     0.00000
                               V21  TOT/SRF=     0.00000     0.00000
                               V21M TOT/SRF=     0.00000     0.00000

             -0.04284    0.00000    0.00000       -0.04284    0.00000    0.00000
              0.00000   -0.04284    0.00000        0.00000   -0.04284    0.00000
              0.00000    0.00000    0.08568        0.00000    0.00000    0.08568

         MAIN DIRECTIONS OF THE EFG   1.0000  0.0000  0.0000
                                      0.0000  1.0000  0.0000
                                      0.0000  0.0000  1.0000
:ANG001:  ANGLE WITH OLD X-AXIS =         0.0

:ETA001:                         ASYMM. ETA =     0.00000


:VCOUL002 ATOMNUMBER=  2 Si1     VCOUL-ZERO =  0.38304E+00
:EFG002:                        EFG         =    -0.00011   *10**21  V / m**2
                               V20  TOT/SRF=    -0.00009     0.14851
                               V22  TOT/SRF=     0.00000     0.00000
                               V22M TOT/SRF=     0.00000     0.00000
                               V21  TOT/SRF=     0.00000     0.00000
                               V21M TOT/SRF=     0.00000     0.00000

              0.00005    0.00000    0.00000        0.00005    0.00000    0.00000
              0.00000    0.00005    0.00000        0.00000    0.00005    0.00000
              0.00000    0.00000   -0.00011        0.00000    0.00000   -0.00011

         MAIN DIRECTIONS OF THE EFG   1.0000  0.0000  0.0000
                                      0.0000  1.0000  0.0000
                                      0.0000  0.0000  1.0000
:ANG002:  ANGLE WITH OLD X-AXIS =         0.0

:ETA002:                         ASYMM. ETA =     0.00000


     HELLMANN-FEYNMAN-FORCE IN mRy/a.u. = |F|  Fx       Fy             Fz
:FHF001:   1.ATOM    200.221226104330      0.000000000000      0.000000000000   -200.221226104330

     HELLMANN-FEYNMAN-FORCE IN mRy/a.u. = |F|  Fx       Fy             Fz
:FHF002:   2.ATOM     42.874995989993      0.000000000000      0.000000000000    -42.874995989993

:FIT001: LUSE= 13 SIGMA OF V-XC FIT FOR ATOM  1  0.1769695E-02
:FIT001: LUSE= 13 SIGMA OF V-XC FIT FOR ATOM  1  0.1769695E-02
:FIT002: LUSE= 13 SIGMA OF V-XC FIT FOR ATOM  2  0.2113010E-03
:FIT002: LUSE= 13 SIGMA OF V-XC FIT FOR ATOM  2  0.2113010E-03
:DEN  : DENSITY INTEGRAL  =         -5828.62388358   (Ry)
       ELS_POTENTIAL_AT Z=0 and Z=0.5:   0.00000   0.00000
       ELS_POTENTIAL_AT Y=0 and Y=0.5:   0.00000   0.00000
:VZERO:v0,v0c,v0x  -0.87368   0.00000  -0.87368 v5,v5c,v5x  -0.87368   0.00000  -0.87368
:VZERY:v0,v0c,v0x  -0.87368   0.00000  -0.87368 v5,v5c,v5x  -0.87368   0.00000  -0.87368
:VZERX:v0,v0c,v0x   0.31818   1.16082  -0.84264 v5,v5c,v5x   0.31818   1.16082  -0.84264
:LMAX-WF:   10   Non-Spherical LMAX:   6

          ATOMIC SPHERE DEPENDENT PARAMETERS FOR ATOM  Co1       
:e__0001: OVERALL ENERGY PARAMETER IS    0.6019
          OVERALL BASIS SET ON ATOM IS LAPW
:E1_0001: E( 1)=    0.6019
             APW+lo
:E1_0001: E( 1)=   -3.4523   E(BOTTOM)=   -3.499   E(TOP)=   -3.406  1  2   206
             LOCAL ORBITAL
:E2_0001: E( 2)=    0.6919   E(BOTTOM)=    0.408   E(TOP)=    0.976  0  1   128
             APW+lo
:E0_0001: E( 0)=    0.6019
             APW+lo

          ATOMIC SPHERE DEPENDENT PARAMETERS FOR ATOM  Si1       
:e__0002: OVERALL ENERGY PARAMETER IS    0.6019
          OVERALL BASIS SET ON ATOM IS LAPW
:E0_0002: E( 0)=    0.6019
             APW+lo
:E1_0002: E( 1)=    0.6019
             APW+lo

       K=  0.083333  0.083333  0.083333            1
:RKM  : MATRIX SIZE   767LOs:  64  RKM= 8.00  WEIGHT= 8.00  PGR:    
       EIGENVALUES ARE:
:EIG00001:      -3.4473335   -3.4469259   -3.4464964   -3.4440862   -3.4436272
:EIG00006:      -3.4434299   -3.4428627   -3.4403487   -3.4402899   -3.4393232
:EIG00011:      -3.4391581   -3.4389775   -0.1336782    0.2201678    0.2556506
:EIG00016:       0.3149570    0.4132240    0.4562549    0.4868842    0.5153725
:EIG00021:       0.5652832    0.5939083    0.6108564    0.6160541    0.6223297
:EIG00026:       0.6238463    0.6262148    0.6275399    0.6628431    0.6739762
:EIG00031:       0.6925471    0.7551893    0.7630977    0.7704658    0.7715019
:EIG00036:       0.7829990    0.8245061    0.8425073    0.8673466    1.0090934
:EIG00041:       1.0321860    1.0459332    1.0945151    1.1011066    1.1454862
:EIG00046:       1.1605575    1.2048781    1.2594334    1.2766635    1.3188105
 
:EIG00051:       1.4201042    1.4369026    1.4903147    1.5024949    1.5900496
:EIG00056:       1.6878896    1.6883402    1.6989968    1.8257008    1.9533460
:EIG00061:       1.9541462    2.0964721    2.1320325    2.1637306    2.2549386
:EIG00066:       2.2769071    2.3046776    2.3604323    2.3643408    2.4115267
:EIG00071:       2.4417477    2.4595019    2.5083821    2.5745670    2.6020306
:EIG00076:       2.6399784    2.6617701    2.6694681    2.7067282    2.7386104
:EIG00081:       2.7572390    2.8066094    2.8781330    2.9109658    2.9218686
:EIG00086:       2.9991575    3.0371914    3.0498048    3.0650656    3.0681638
:EIG00091:       3.1013857    3.1397178    3.1694332    3.1797954    3.2455074
:EIG00096:       3.2986649    3.3028354    3.3891228    3.3935296    3.3999530
 
:EIG00101:       3.4723478    3.4972804    3.4997763    3.5569221    3.5900115
:EIG00106:       3.6088683    3.6455458    3.6485909    3.6962174    3.7491202
:EIG00111:       3.7653347    3.8583485    3.9120695    4.0479998    4.1068497
:EIG00116:       4.1331308    4.2061110    4.2560065    4.2777335    4.2904232
:EIG00121:       4.3554819    4.3616617    4.4079139    4.4548446    4.5042659
:EIG00126:       4.5204519    4.5561830    4.5726689    4.5936095    4.6392654
:EIG00131:       4.6489926    4.6901907    4.7022017    4.7114854    4.7743832
:EIG00136:       4.7820564    4.8294502    4.8435805    4.8490418    4.8942837
:EIG00141:       4.9454363    4.9725183    4.9861755    5.0324438    5.0382102
:EIG00146:       5.1092082    5.1390464    5.1395300    5.1804566    5.1949006
 
:EIG00151:       5.1971592    5.2438159    5.2722885    5.3306585    5.3663164
:EIG00156:       5.3963314    5.4089403    5.4456988    5.4606899    5.5013434
:EIG00161:       5.5092260    5.5676209    5.5821746    5.5891684    5.6181798
:EIG00166:       5.6302384    5.6431943    5.7259572    5.7638748    5.7904866
       ********************************************************

:KPT   :      NUMBER OF K-POINTS:    11
   0.0   0.0 angle (M,z), angle (M,x) deg
 
        SPIN-ORBIT EIGENVALUES:
     K=  0.083333  0.083333  0.083333            1
      MATRIX SIZE=  340   WEIGHT= 8.00
     EIGENVALUES ARE:
          -3.5324505   -3.5324003   -3.5321332   -3.5321311   -3.5318497
          -3.5317444   -3.5293571   -3.5293567   -3.4019039   -3.4012361
          -3.4011463   -3.4010450   -3.4005731   -3.4005436   -3.3996216
          -3.3992380   -3.3985446   -3.3984127   -3.3975830   -3.3973219
          -3.3954213   -3.3952930   -3.3951654   -3.3949918   -0.1336776
          -0.1336773    0.2198845    0.2204591    0.2553791    0.2559251
           0.3146829    0.3152197    0.4129278    0.4135077    0.4559520
           0.4565161    0.4864501    0.4872593    0.5150487    0.5155510

           0.5650507    0.5652618    0.5921671    0.5953566    0.6106420
           0.6107778    0.6149569    0.6166093    0.6217413    0.6220383
           0.6231039    0.6239528    0.6256641    0.6261085    0.6275578
           0.6285583    0.6618645    0.6638882    0.6736891    0.6742784
           0.6923908    0.6926442    0.7545394    0.7554959    0.7628142
           0.7634348    0.7696351    0.7710789    0.7716914    0.7723884
           0.7820233    0.7847086    0.8230773    0.8260563    0.8426604
           0.8426626    0.8658077    0.8690866    1.0080403    1.0098408

           1.0310086    1.0335265    1.0451806    1.0470833    1.0929676
           1.0961560    1.0995366    1.1027295    1.1453938    1.1456917
           1.1591619    1.1620705    1.2046077    1.2052413    1.2594139
           1.2595358    1.2756610    1.2776972    1.3187816    1.3188800
           1.4197326    1.4205099    1.4363389    1.4375002    1.4902593
           1.4903751    1.5023006    1.5028724    1.5899769    1.5901661
           1.6877172    1.6878430    1.6883900    1.6885616    1.6985265
           1.6995075    1.8255643    1.8258791
       ********************************************************
:GAP (global)   :    0.0    Ry =     0.0   eV (metal)
:GAP (this spin):    0.0    Ry =     0.0   eV (metal)
         Bandranges (emin - emax) and occupancy:
:BAN00068:  68    0.731181    0.771079  1.00000000
:BAN00069:  69    0.744178    0.779583  1.00000000
:BAN00070:  70    0.746382    0.782219  1.00000000
:BAN00071:  71    0.749414    0.786705  1.00000000
:BAN00072:  72    0.750705    0.788243  1.00000000
:BAN00073:  73    0.794590    0.823077  1.00000000
:BAN00074:  74    0.795660    0.826056  1.00000000
:BAN00075:  75    0.808478    0.842660  0.99394229
:BAN00076:  76    0.810681    0.842663  0.99372867
:BAN00077:  77    0.840363    0.928609  0.00664611
:BAN00078:  78    0.841156    0.930044  0.00568293
:BAN00079:  79    0.848976    1.008040  0.00000000
:BAN00080:  80    0.850246    1.009841  0.00000000
:BAN00081:  81    0.978843    1.191437  0.00000000
:BAN00082:  82    0.979420    1.191527  0.00000000
:BAN00083:  83    0.993471    1.247139  0.00000000
        Energy to separate low and high energystates:   -0.18368


:NOE  : NUMBER OF ELECTRONS          =   76.000

:FER  : F E R M I - ENERGY(TETRAH.M.)=   0.8420577222
:GMA  : POTENTIAL AND CHARGE CUT-OFF  20.00 Ry**.5

:POS001: ATOM   -1 X,Y,Z = 0.85410 0.64590 0.35410  MULT= 4  ZZ= 27.000  Co1       

       LMMAX 17
       LM=   0 0  1 0  2 0  3 0  3 3 -3 3  4 0  4 3 -4 3  5 0  5 3 -5 3  6 0  6 3 -6 3  6 6 -6 6


:CHA001: TOTAL VALENCE CHARGE INSIDE SPHERE   1 =  14.5150    (RMT=  2.2500 )
:PCS001: PARTIAL CHARGES SPHERE =  1 S,P,D,F,PZ,PXY, D-Z2,D-XY,X2Y2,D-XZ,YZ 
:QTL001: 0.3841 6.4962 7.6069 0.0236 2.1720 4.3243 0.0000 1.5479 3.0526 3.0065 0.0000 0.0000
        Q-s-low E-s-low   Q-p-low E-p-low   Q-d-low E-d-low   Q-f-low E-f-low
:EPL001:  0.0000 10.0000    5.9847 -3.4429    0.0001 -3.4428    0.0000 10.0000
        Q-s-hi  E-s-hi    Q-p-hi  E-p-hi    Q-d-hi  E-d-hi    Q-f-hi  E-f-hi 
:EPH001:  0.3841  0.3032    0.5115  0.4951    7.6069  0.6694    0.0235  0.5915
:VZZ001: EFG INSIDE SPHERE   1 =     0.248886      UP TO R =   2.25000

:POS002: ATOM   -2 X,Y,Z = 0.15654 0.34346 0.65654  MULT= 4  ZZ= 14.000  Si1       

       LMMAX 17
       LM=   0 0  1 0  2 0  3 0  3 3 -3 3  4 0  4 3 -4 3  5 0  5 3 -5 3  6 0  6 3 -6 3  6 6 -6 6


:CHA002: TOTAL VALENCE CHARGE INSIDE SPHERE   2 =   1.5160    (RMT=  1.9300 )
:PCS002: PARTIAL CHARGES SPHERE =  2 S,P,D,F,PZ,PXY, D-Z2,D-XY,X2Y2,D-XZ,YZ 
:QTL002: 0.6247 0.7400 0.1361 0.0128 0.2754 0.4647 0.0000 0.0277 0.0468 0.0616 0.0000 0.0000
        Q-s-low E-s-low   Q-p-low E-p-low   Q-d-low E-d-low   Q-f-low E-f-low
:EPL002:  0.0002 -3.4410    0.0003 -3.4415    0.0002 -3.4420    0.0001 -3.4363
        Q-s-hi  E-s-hi    Q-p-hi  E-p-hi    Q-d-hi  E-d-hi    Q-f-hi  E-f-hi 
:EPH002:  0.6245  0.2097    0.7397  0.5091    0.1359  0.6203    0.0127  0.6519
:VZZ002: EFG INSIDE SPHERE   2 =    -3.016544      UP TO R =   1.93000

:CHA  : TOTAL VALENCE CHARGE INSIDE UNIT CELL =      76.000000

:SUM  : SUM OF EIGENVALUES =         -53.044847071


        1.ATOM      Co1                   5 CORE STATES
       CORE-FORCE in mRy/a.u. = |F|      Fx             Fy             Fz
:FCO001:   1.ATOM     92.387642665014      0.000000000000      0.000000000000     92.387642665014

:1S 001: 1S                -556.518080614 Ry
:2S 001: 2S                 -64.620211632 Ry
:2PP001: 2P*                -55.864423492 Ry
:2P 001: 2P                 -54.775048500 Ry
:3S 001: 3S                  -6.136811504 Ry

        2.ATOM      Si1                   4 CORE STATES
       CORE-FORCE in mRy/a.u. = |F|      Fx             Fy             Fz
:FCO002:   2.ATOM     32.206058067182      0.000000000000      0.000000000000     32.206058067182

:1S 002: 1S                -129.860253418 Ry
:2S 002: 2S                  -8.875784647 Ry
:2PP002: 2P*                 -5.677101630 Ry
:2P 002: 2P                  -5.629694501 Ry
:CINT001 Core Integral Atom   1   11.99888345
:CINT002 Core Integral Atom   2    9.99434156

       DENSITY AT NUCLEUS
        JATOM        VALENCE       SEMI-CORE          CORE           TOTAL
:RTO001:   1        7.135036        0.000000    17495.542302    17502.677338
:RTO002:   2        6.507524        0.000000     1886.052908     1892.560432
:K-LIST:Reduced k-vector list     6435     468
     
       CHARGES OF NEW CHARGE DENSITY
:NTO   : INTERSTITIAL CHARGE  =    11.876715
:NPC   : INTERSTITIAL CHARGE  =    19.113272
:NTO001: CHARGE SPHERE   1    =    26.513849
:NTO002: CHARGE SPHERE   2    =    11.510373

:NEC01: NUCLEAR AND ELECTRONIC CHARGE    164.00000000   163.97360099 Plane Wave
     
       CHARGES OF OLD CHARGE DENSITY
:OTO   : INTERSTITIAL CHARGE  =    12.043312
:OPC   : INTERSTITIAL CHARGE  =    21.637690
:OTO001: CHARGE SPHERE   1    =    26.164462
:OTO002: CHARGE SPHERE   2    =    11.824710

:NEC02: NUCLEAR AND ELECTRONIC CHARGE    164.00000000   164.00000000
     
       CONVERGENCE TEST
:DTO001: DIFFERENCE IN SPHERE  1 =  0.2433397
:DTO002: DIFFERENCE IN SPHERE  2 =  0.2516870

:DIS  :  CHARGE DISTANCE      (  0.2516870 for atom    2 spin 1)      0.2475134
 
******************************************************
* Multisecant Mixing Release 10.8.9                  *
* Standard Mode with step bound                      *
* Multisecant MSR1 Algorithm                         *
* Regularization       2.000E-04                     *
* Minimum Greed        1.000E-03                     *
* Max Number of Memory Steps    8                    *
******************************************************
 
:INFOC: Max vcoul   0.00256 for atom   2 average:   0.00141

:FULLRMS/Atom   0.4056590526
:PLANE:  PW /ATOM     2.58647 DISTAN   4.13E-01 %  1.60E+01
:CHARG:  CLM/ATOM   258.60412 DISTAN   3.98E-01 %  1.54E-01
:INFOF Fractnow,Tolerror,TolReject,qtot     0.908     1.667     3.000     0.248 F F F

Step History
        Dmix         Dmixt        Red     Pred      Step      Lambda    MagAbs    Beta
  1   7.4211E-02   3.5000E-01  1.00E+00  1.00E+00  1.00E-01  1.00E+00  9.89E-02  1.00E+00
  2   7.4211E-02   2.4737E-02  4.47E-01  1.00E+00  1.00E-01  1.00E+00  9.89E-02  1.00E+00
  3   7.4211E-02   1.4496E-02  1.00E+00  9.40E-01  1.12E-01  1.00E+00  1.41E-01  1.00E+00
:NOTE :  Number of Memory Steps    2 Skipping    0
:INFOSL ,t1/t2,syy/sys,sqrt(syy/sss)     0.953     0.775     1.231     1.917     1.717     1.116     1.917     1.678     1.142

:PREDicted Charge, CTotal, PW Trust   4.61E-02   3.46E-01   1.74E+00
:PREDicted DMix, Beta, BLim           1.22E-01   1.00E+00   6.05E-01

Eigenvalues, unscaled except for SY+YY with Slambda=   1.03913 Ylambda=   1.00000
   #     SY Real       SY Imag         SS            YY        SY+YY Real     SY+YY Imag
   1   9.00546E-01   0.00000E+00   8.78934E-01   1.01345E+00   1.94682E+00   0.00000E+00
   2   5.86306E-03   0.00000E+00   2.12461E-03   4.46764E-02   5.31779E-02   0.00000E+00
 
:SING : Singular value  1.947E+00  Weight  1.000E+00  Projection -6.554E-01
:SING : Singular value  5.318E-02  Weight  9.999E-01  Projection  2.293E+00

:RANK :  ACTIVE   2.00/2  = 100.00 % ; YY RANK   2.00/2  = 100.00 %
:TRUST:  Step  2.5E-01 Charge  2.6E-02 (e) CTO  2.0E-01 (e) PW  3.1E-01 (e)
:DTRUS:  Lambda   1.211E+00 Increment   9.548E-15 Iterations    49 DMIX   5.015E-02
:DIRM :  MEMORY  2/8  RED  0.91 PRED  0.94 NEXT  0.78
:NOTE :  Limited by Atoms F by Step T

:DIRP : |MSR1|= 2.500E-01 |PRATT|= 8.255E-01 ANGLE=  24.3 DEGREES
:DIRQ : |MSR1|= 1.318E-01 |PRATT|= 7.968E-01 ANGLE=  11.1 DEGREES
:DIRT : |MSR1|= 2.826E-01 |PRATT|= 1.147E+00 ANGLE=  26.1 DEGREES
:MIX  :  MSR1   REGULARIZATION:  3.89E-04 GREED: 0.09817  LMStep 0.52  0.2463 Step           
     
       CHARGES OF MIXED CHARGE DENSITY
:CTO   : INTERSTITIAL CHARGE  =    12.036102
:CPC   : INTERSTITIAL CHARGE  =    20.930629
:CTO001: CHARGE SPHERE   1    =    26.218325
:CTO002: CHARGE SPHERE   2    =    11.772650

:NEC03: NUCLEAR AND ELECTRONIC CHARGE    164.00000000   164.00000000

:VSNew: Total Rescaling   1.00000000

PW CHANGE     H    K    L             Current                    Change               Residue
:PTO001:      0    0    0  5.80135872E-02 0.00000000E+00 -1.257E-03  0.000E+00 -4.614E-03  0.000E+00
:PTO003:     -1   -1    0  4.35753461E-19 7.11639407E-03  8.863E-20  1.447E-03  6.165E-19  1.007E-02
:PTO004:     -1   -1   -1  8.51517411E-03-5.77438781E-05 -3.191E-04 -2.122E-04 -8.726E-06 -1.240E-03
:PTO005:     -1   -1    1  8.51517411E-03 5.77438781E-05 -3.191E-04  2.122E-04 -8.726E-06  1.240E-03
:PTO006:     -2    0    0 -1.09488453E-02 0.00000000E+00  1.056E-03  0.000E+00  2.102E-03  0.000E+00
:PTO007:     -2   -1    0 -2.48922602E-02 0.00000000E+00  6.116E-03  0.000E+00  1.723E-02  0.000E+00
:PTO008:     -2    0   -1  2.86685301E-19 4.68192627E-03 -4.443E-20 -7.256E-04 -1.464E-19 -2.391E-03
:PTO009:     -2   -1   -1 -3.99383941E-03-3.64742275E-04  3.993E-03 -5.383E-05  1.316E-02  5.094E-05
:PTO010:     -2   -1    1  3.99383941E-03-3.64742275E-04 -3.993E-03 -5.383E-05 -1.316E-02  5.094E-05
:PTO011:     -2   -2    0 -7.07038167E-04 0.00000000E+00 -1.570E-04  0.000E+00  1.013E-03  0.000E+00
:PTO013:     -2   -2   -1 -4.33759606E-03-4.46466348E-04 -1.486E-03 -1.771E-04 -4.365E-03 -7.620E-04
:PTO014:     -2   -2    1  4.33759606E-03-4.46466348E-04  1.486E-03 -1.771E-04  4.365E-03 -7.620E-04

:ENE  : ********** TOTAL ENERGY IN Ry =       -13468.56595416

:FOR001:   1.ATOM        107.834          0.000          0.000       -107.834 partial forces
:FOR002:   2.ATOM         10.669          0.000          0.000        -10.669 partial forces
       TOTAL FORCE WITH RESPECT TO THE GLOBAL COORDINATE SYSTEM:
:FGL001:   1.ATOM               -62.257748426    62.257748426   -62.257748426 partial forces
:FGL002:   2.ATOM                -6.159714182     6.159714182    -6.159714182 partial forces
 Euler-Maclaurian Coulomb
 Consistent 3/8+Simpson combinations at start/end
 New Mode for Coulomb Integral
 Extension of core to zero
 LDM version in phi
 Fifth-order quadrature in outwin
 Lebedev-Laikov Grid in lapw0


            ---------
:ITE004:  4. ITERATION
            ---------

:NATO :    2 INDEPENDENT AND    8 TOTAL ATOMS IN UNITCELL
       SUBSTANCE: blebleble                                                   

       LATTICE                      = P   
:LAT  : LATTICE CONSTANTS=  8.28289  8.28289  8.28289    1.571    1.571    1.571
:VOL  : UNIT CELL VOLUME =     568.25878
:POT  : POTENTIAL OPTION EX_PBE EC_PBE VX_PBE VC_PBE
       MODE OF CALCULATION IS       = RELA
       NON-SPINPOLARIZED CALCULATION
:IFFT  : FFT-parameters:  162  162  162 Factor: 3.00


   CONVERGENCE PARAMETER FOR PSEUDOCHARGE: NCON=  9
   MAXIMAL VALUE OF RMT(JATOM)*ABSK(NKK) : RK  =44.96350


:VKCOUL :  VK-COUL convergence: 0.334E-09
 Lebedev grid of          350
 :rho_min:  2.000000000000000E-008  1.000000000000000E-009
:VCOUL001 ATOMNUMBER=  1 Co1     VCOUL-ZERO =  0.67884E+00
:EFG001:                        EFG         =     0.15165   *10**21  V / m**2
                               V20  TOT/SRF=     0.13133     0.11940
                               V22  TOT/SRF=     0.00000     0.00000
                               V22M TOT/SRF=     0.00000     0.00000
                               V21  TOT/SRF=     0.00000     0.00000
                               V21M TOT/SRF=     0.00000     0.00000

             -0.07583    0.00000    0.00000       -0.07583    0.00000    0.00000
              0.00000   -0.07583    0.00000        0.00000   -0.07583    0.00000
              0.00000    0.00000    0.15165        0.00000    0.00000    0.15165

         MAIN DIRECTIONS OF THE EFG   1.0000  0.0000  0.0000
                                      0.0000  1.0000  0.0000
                                      0.0000  0.0000  1.0000
:ANG001:  ANGLE WITH OLD X-AXIS =         0.0

:ETA001:                         ASYMM. ETA =     0.00000


:VCOUL002 ATOMNUMBER=  2 Si1     VCOUL-ZERO =  0.36367E+00
:EFG002:                        EFG         =    -0.52729   *10**21  V / m**2
                               V20  TOT/SRF=    -0.45664     0.10607
                               V22  TOT/SRF=     0.00000     0.00000
                               V22M TOT/SRF=     0.00000     0.00000
                               V21  TOT/SRF=     0.00000     0.00000
                               V21M TOT/SRF=     0.00000     0.00000

              0.26364    0.00000    0.00000        0.26364    0.00000    0.00000
              0.00000    0.26364    0.00000        0.00000    0.26364    0.00000
              0.00000    0.00000   -0.52729        0.00000    0.00000   -0.52729

         MAIN DIRECTIONS OF THE EFG   1.0000  0.0000  0.0000
                                      0.0000  1.0000  0.0000
                                      0.0000  0.0000  1.0000
:ANG002:  ANGLE WITH OLD X-AXIS =         0.0

:ETA002:                         ASYMM. ETA =     0.00000


     HELLMANN-FEYNMAN-FORCE IN mRy/a.u. = |F|  Fx       Fy             Fz
:FHF001:   1.ATOM     83.930129417291      0.000000000000      0.000000000000    -83.930129417291

     HELLMANN-FEYNMAN-FORCE IN mRy/a.u. = |F|  Fx       Fy             Fz
:FHF002:   2.ATOM     28.171756702950      0.000000000000      0.000000000000     28.171756702950

:FIT001: LUSE= 13 SIGMA OF V-XC FIT FOR ATOM  1  0.1732180E-02
:FIT001: LUSE= 13 SIGMA OF V-XC FIT FOR ATOM  1  0.1732180E-02
:FIT002: LUSE= 13 SIGMA OF V-XC FIT FOR ATOM  2  0.1607838E-03
:FIT002: LUSE= 13 SIGMA OF V-XC FIT FOR ATOM  2  0.1607838E-03
:DEN  : DENSITY INTEGRAL  =         -5829.51872781   (Ry)
       ELS_POTENTIAL_AT Z=0 and Z=0.5:   0.00000   0.00000
       ELS_POTENTIAL_AT Y=0 and Y=0.5:   0.00000   0.00000
:VZERO:v0,v0c,v0x  -0.86781   0.00000  -0.86781 v5,v5c,v5x  -0.86781   0.00000  -0.86781
:VZERY:v0,v0c,v0x  -0.86781   0.00000  -0.86781 v5,v5c,v5x  -0.86781   0.00000  -0.86781
:VZERX:v0,v0c,v0x   0.30384   1.14855  -0.84471 v5,v5c,v5x   0.30384   1.14855  -0.84471
:LMAX-WF:   10   Non-Spherical LMAX:   6

          ATOMIC SPHERE DEPENDENT PARAMETERS FOR ATOM  Co1       
:e__0001: OVERALL ENERGY PARAMETER IS    0.6287
          OVERALL BASIS SET ON ATOM IS LAPW
:E1_0001: E( 1)=    0.6287
             APW+lo
:E1_0001: E( 1)=   -3.4186   E(BOTTOM)=   -3.465   E(TOP)=   -3.372  1  2   214
             LOCAL ORBITAL
:E2_0001: E( 2)=    0.7213   E(BOTTOM)=    0.434   E(TOP)=    1.009  0  1   125
             APW+lo
:E0_0001: E( 0)=    0.6287
             APW+lo

          ATOMIC SPHERE DEPENDENT PARAMETERS FOR ATOM  Si1       
:e__0002: OVERALL ENERGY PARAMETER IS    0.6287
          OVERALL BASIS SET ON ATOM IS LAPW
:E0_0002: E( 0)=    0.6287
             APW+lo
:E1_0002: E( 1)=    0.6287
             APW+lo

       K=  0.083333  0.083333  0.083333            1
:RKM  : MATRIX SIZE   767LOs:  64  RKM= 8.00  WEIGHT= 8.00  PGR:    
       EIGENVALUES ARE:
:EIG00001:      -3.4140023   -3.4135892   -3.4131538   -3.4102018   -3.4099988
:EIG00006:      -3.4093945   -3.4087607   -3.4062003   -3.4061426   -3.4051867
:EIG00011:      -3.4050259   -3.4048282   -0.1429799    0.2093704    0.2468448
:EIG00016:       0.3096172    0.4126621    0.4589456    0.4917018    0.5185166
:EIG00021:       0.5753636    0.6055320    0.6290042    0.6306920    0.6427357
:EIG00026:       0.6453404    0.6468320    0.6479831    0.6786280    0.6886321
:EIG00031:       0.7073123    0.7815450    0.7877002    0.7979731    0.8004726
:EIG00036:       0.8080892    0.8482630    0.8658513    0.8886119    1.0200030
:EIG00041:       1.0405354    1.0569446    1.0957501    1.1046658    1.1470713
:EIG00046:       1.1657630    1.2068798    1.2582837    1.2787987    1.3190458
 
:EIG00051:       1.4183980    1.4376905    1.4820431    1.4972450    1.5840570
:EIG00056:       1.6783993    1.6818256    1.6893131    1.8157070    1.9458556
:EIG00061:       1.9467543    2.0892308    2.1184753    2.1505581    2.2421847
:EIG00066:       2.2650099    2.2946628    2.3502269    2.3531913    2.3988584
:EIG00071:       2.4332107    2.4520424    2.4954945    2.5685091    2.5921156
:EIG00076:       2.6364770    2.6505590    2.6625169    2.7017802    2.7322545
:EIG00081:       2.7525744    2.7997592    2.8689341    2.9041677    2.9185350
:EIG00086:       2.9949820    3.0284897    3.0459941    3.0610097    3.0612885
:EIG00091:       3.1001897    3.1368348    3.1635024    3.1767501    3.2370323
:EIG00096:       3.2915274    3.3032412    3.3837463    3.3908765    3.3952733
 
:EIG00101:       3.4683534    3.4905273    3.4914009    3.5493396    3.5809416
:EIG00106:       3.6032716    3.6382883    3.6441457    3.6902207    3.7439669
:EIG00111:       3.7606066    3.8549853    3.9012909    4.0416015    4.0986085
:EIG00116:       4.1237702    4.1942802    4.2509430    4.2695482    4.2808575
:EIG00121:       4.3409704    4.3519107    4.3990608    4.4458713    4.4939331
:EIG00126:       4.5116722    4.5455814    4.5672051    4.5829080    4.6307612
:EIG00131:       4.6441317    4.6812634    4.6934972    4.7012663    4.7686151
:EIG00136:       4.7758572    4.8200755    4.8348343    4.8395608    4.8848570
:EIG00141:       4.9398310    4.9649674    4.9780794    5.0246420    5.0313769
:EIG00146:       5.0999507    5.1337483    5.1339049    5.1742110    5.1857038
 
:EIG00151:       5.1878350    5.2377395    5.2651941    5.3234103    5.3565971
:EIG00156:       5.3860555    5.4047426    5.4394998    5.4492619    5.4920999
:EIG00161:       5.5038242    5.5612698    5.5721464    5.5798706    5.6119337
:EIG00166:       5.6190933    5.6349860    5.7177289    5.7591575    5.7858138
:EIG00171:       5.7963075    5.8236003
       ********************************************************

:KPT   :      NUMBER OF K-POINTS:    11
   0.0   0.0 angle (M,z), angle (M,x) deg
 
        SPIN-ORBIT EIGENVALUES:
     K=  0.083333  0.083333  0.083333            1
      MATRIX SIZE=  344   WEIGHT= 8.00
     EIGENVALUES ARE:
          -3.4985317   -3.4984717   -3.4982023   -3.4981929   -3.4979216
          -3.4978002   -3.4953893   -3.4953875   -3.3683711   -3.3676541
          -3.3675012   -3.3674582   -3.3668646   -3.3668552   -3.3660530
          -3.3656554   -3.3645450   -3.3644627   -3.3635499   -3.3633190
          -3.3613465   -3.3612135   -3.3610864   -3.3609095   -0.1429792
          -0.1429789    0.2090892    0.2096628    0.2465766    0.2471199
           0.3093441    0.3098849    0.4123556    0.4129640    0.4587022
           0.4591621    0.4913191    0.4920437    0.5182373    0.5186836

           0.5752444    0.5752726    0.6039784    0.6068429    0.6288033
           0.6289620    0.6296909    0.6312397    0.6422638    0.6426076
           0.6451465    0.6454957    0.6459488    0.6470207    0.6478065
           0.6483015    0.6779365    0.6793484    0.6883333    0.6889336
           0.7072418    0.7073178    0.7809452    0.7816871    0.7876278
           0.7880375    0.7974830    0.7983829    0.7999527    0.8013167
           0.8076426    0.8095929    0.8468584    0.8497411    0.8659650
           0.8660085    0.8869901    0.8904197    1.0188845    1.0207478

           1.0393690    1.0419291    1.0561864    1.0580750    1.0940862
           1.0975320    1.1029095    1.1064789    1.1469965    1.1472832
           1.1644611    1.1672049    1.2067830    1.2070887    1.2582898
           1.2583636    1.2777339    1.2798942    1.3189643    1.3191682
           1.4179899    1.4188409    1.4371658    1.4382381    1.4820117
           1.4820834    1.4971031    1.4975745    1.5839977    1.5841603
           1.6783226    1.6784590    1.6817973    1.6819172    1.6888215
           1.6898532    1.8155620    1.8158954
       ********************************************************
:GAP (global)   :    0.0    Ry =     0.0   eV (metal)
:GAP (this spin):    0.0    Ry =     0.0   eV (metal)
         Bandranges (emin - emax) and occupancy:
:BAN00066:  66    0.751595    0.788038  1.00000000
:BAN00067:  67    0.753170    0.797483  1.00000000
:BAN00068:  68    0.755849    0.798383  1.00000000
:BAN00069:  69    0.770251    0.805400  1.00000000
:BAN00070:  70    0.772914    0.808196  1.00000000
:BAN00071:  71    0.775664    0.813261  1.00000000
:BAN00072:  72    0.777127    0.815351  1.00000000
:BAN00073:  73    0.823627    0.846858  1.00000000
:BAN00074:  74    0.824575    0.849741  1.00000000
:BAN00075:  75    0.834096    0.865965  1.00000000
:BAN00076:  76    0.836180    0.866008  1.00000000
:BAN00077:  77    0.866159    0.944384  0.00000000
:BAN00078:  78    0.866913    0.946090  0.00000000
:BAN00079:  79    0.873770    1.018884  0.00000000
:BAN00080:  80    0.875062    1.020748  0.00000000
:BAN00081:  81    0.994393    1.183949  0.00000000
        Energy to separate low and high energystates:   -0.19298


:NOE  : NUMBER OF ELECTRONS          =   76.000

:FER  : F E R M I - ENERGY(TETRAH.M.)=   0.8660113151
:GMA  : POTENTIAL AND CHARGE CUT-OFF  20.00 Ry**.5

:POS001: ATOM   -1 X,Y,Z = 0.85410 0.64590 0.35410  MULT= 4  ZZ= 27.000  Co1       

       LMMAX 17
       LM=   0 0  1 0  2 0  3 0  3 3 -3 3  4 0  4 3 -4 3  5 0  5 3 -5 3  6 0  6 3 -6 3  6 6 -6 6


:CHA001: TOTAL VALENCE CHARGE INSIDE SPHERE   1 =  14.3380    (RMT=  2.2500 )
:PCS001: PARTIAL CHARGES SPHERE =  1 S,P,D,F,PZ,PXY, D-Z2,D-XY,X2Y2,D-XZ,YZ 
:QTL001: 0.3816 6.5010 7.4256 0.0254 2.1737 4.3272 0.0000 1.5121 2.9769 2.9366 0.0000 0.0000
        Q-s-low E-s-low   Q-p-low E-p-low   Q-d-low E-d-low   Q-f-low E-f-low
:EPL001:  0.0000 10.0000    5.9844 -3.4091    0.0001 -3.4088    0.0000 10.0000
        Q-s-hi  E-s-hi    Q-p-hi  E-p-hi    Q-d-hi  E-d-hi    Q-f-hi  E-f-hi 
:EPH001:  0.3815  0.3068    0.5165  0.4994    7.4256  0.6935    0.0253  0.6044
:VZZ001: EFG INSIDE SPHERE   1 =     0.122326      UP TO R =   2.25000

:POS002: ATOM   -2 X,Y,Z = 0.15654 0.34346 0.65654  MULT= 4  ZZ= 14.000  Si1       

       LMMAX 17
       LM=   0 0  1 0  2 0  3 0  3 3 -3 3  4 0  4 3 -4 3  5 0  5 3 -5 3  6 0  6 3 -6 3  6 6 -6 6


:CHA002: TOTAL VALENCE CHARGE INSIDE SPHERE   2 =   1.5984    (RMT=  1.9300 )
:PCS002: PARTIAL CHARGES SPHERE =  2 S,P,D,F,PZ,PXY, D-Z2,D-XY,X2Y2,D-XZ,YZ 
:QTL002: 0.6459 0.7891 0.1475 0.0134 0.2893 0.4998 0.0000 0.0297 0.0510 0.0667 0.0000 0.0000
        Q-s-low E-s-low   Q-p-low E-p-low   Q-d-low E-d-low   Q-f-low E-f-low
:EPL002:  0.0002 -3.4071    0.0003 -3.4077    0.0003 -3.4081    0.0001 -3.4026
        Q-s-hi  E-s-hi    Q-p-hi  E-p-hi    Q-d-hi  E-d-hi    Q-f-hi  E-f-hi 
:EPH002:  0.6457  0.2058    0.7888  0.5160    0.1472  0.6376    0.0133  0.6732
:VZZ002: EFG INSIDE SPHERE   2 =    -2.765043      UP TO R =   1.93000

:CHA  : TOTAL VALENCE CHARGE INSIDE UNIT CELL =      76.000000

:SUM  : SUM OF EIGENVALUES =         -51.537762464


        1.ATOM      Co1                   5 CORE STATES
       CORE-FORCE in mRy/a.u. = |F|      Fx             Fy             Fz
:FCO001:   1.ATOM     28.597609360844      0.000000000000      0.000000000000     28.597609360844

:1S 001: 1S                -556.487496308 Ry
:2S 001: 2S                 -64.586150272 Ry
:2PP001: 2P*                -55.830790427 Ry
:2P 001: 2P                 -54.741371031 Ry
:3S 001: 3S                  -6.102090371 Ry

        2.ATOM      Si1                   4 CORE STATES
       CORE-FORCE in mRy/a.u. = |F|      Fx             Fy             Fz
:FCO002:   2.ATOM     30.471229041600      0.000000000000      0.000000000000    -30.471229041600

:1S 002: 1S                -129.922174703 Ry
:2S 002: 2S                  -8.927341016 Ry
:2PP002: 2P*                 -5.729228325 Ry
:2P 002: 2P                  -5.681767482 Ry
:CINT001 Core Integral Atom   1   11.99886773
:CINT002 Core Integral Atom   2    9.99443878

       DENSITY AT NUCLEUS
        JATOM        VALENCE       SEMI-CORE          CORE           TOTAL
:RTO001:   1        7.065704        0.000000    17495.510583    17502.576287
:RTO002:   2        6.764454        0.000000     1886.178261     1892.942715
:K-LIST:Reduced k-vector list     6435     468
     
       CHARGES OF NEW CHARGE DENSITY
:NTO   : INTERSTITIAL CHARGE  =    12.254854
:NPC   : INTERSTITIAL CHARGE  =    19.502944
:NTO001: CHARGE SPHERE   1    =    26.336844
:NTO002: CHARGE SPHERE   2    =    11.592818

:NEC01: NUCLEAR AND ELECTRONIC CHARGE    164.00000000   163.97350185 Plane Wave
     
       CHARGES OF OLD CHARGE DENSITY
:OTO   : INTERSTITIAL CHARGE  =    12.036102
:OPC   : INTERSTITIAL CHARGE  =    20.930629
:OTO001: CHARGE SPHERE   1    =    26.218325
:OTO002: CHARGE SPHERE   2    =    11.772650

:NEC02: NUCLEAR AND ELECTRONIC CHARGE    164.00000000   164.00000000

:VSOld: Total Rescaling   1.00000000
     
       CONVERGENCE TEST
:DTO001: DIFFERENCE IN SPHERE  1 =  0.2247251
:DTO002: DIFFERENCE IN SPHERE  2 =  0.1564841

:DIS  :  CHARGE DISTANCE      (  0.2247251 for atom    1 spin 1)      0.1906046
 
******************************************************
* Multisecant Mixing Release 10.8.9                  *
* Standard Mode with step bound                      *
* Multisecant MSR1 Algorithm                         *
* Regularization       2.000E-04                     *
* Minimum Greed        1.000E-03                     *
* Max Number of Memory Steps    8                    *
******************************************************
 
:INFOC: Max vcoul   0.01937 for atom   2 average:   0.01349

:FULLRMS/Atom   0.2929694229
:PLANE:  PW /ATOM     2.52455 DISTAN   2.66E-01 %  1.05E+01
:CHARG:  CLM/ATOM   258.58365 DISTAN   3.18E-01 %  1.23E-01
:INFOF Fractnow,Tolerror,TolReject,qtot     0.722     1.667     3.000     0.191 F F F

Step History
        Dmix         Dmixt        Red     Pred      Step      Lambda    MagAbs    Beta
  1   7.4211E-02   3.5000E-01  1.00E+00  1.00E+00  1.00E-01  1.00E+00  9.89E-02  1.00E+00
  2   7.4211E-02   2.4737E-02  4.47E-01  1.00E+00  1.00E-01  1.00E+00  9.89E-02  1.00E+00
  3   7.4211E-02   1.4496E-02  9.08E-01  9.40E-01  1.12E-01  1.00E+00  1.41E-01  1.00E+00
  4   9.8172E-02   5.0152E-02  1.00E+00  7.79E-01  2.46E-01  1.04E+00  2.83E-01  1.00E+00
:NOTE :  Number of Memory Steps    3 Skipping    0
:INFOSL ,t1/t2,syy/sys,sqrt(syy/sss)     0.270     0.469     0.577     2.659     1.298     2.049     2.659     1.170     2.272

:PREDicted Charge, CTotal, PW Trust   5.63E-02   4.33E-01   1.30E+00
:PREDicted DMix, Beta, BLim           5.25E-02   1.04E+00   5.45E-01

Eigenvalues, unscaled except for SY+YY with Slambda=   1.12616 Ylambda=   1.00000
   #     SY Real       SY Imag         SS            YY        SY+YY Real     SY+YY Imag
   1   7.79073E-01   0.00000E+00   6.84058E-01   1.84273E+00   2.64776E+00   0.00000E+00
   2   6.44811E-02   0.00000E+00   3.67937E-02   2.07239E-01   3.52179E-01   0.00000E+00
   3   2.03591E-05   0.00000E+00   3.66296E-06   3.50161E-05   5.70011E-05   0.00000E+00
 
:SING : Singular value  2.648E+00  Weight  1.000E+00  Projection -2.327E-01
:SING : Singular value  3.521E-01  Weight  1.000E+00  Projection  2.687E-01
:SING : Singular value  5.700E-05  Weight  1.145E-02  Projection -1.486E+00

:RANK :  ACTIVE   2.01/3  =  67.05 % ; YY RANK   2.00/3  =  66.81 %
:TRUST:  Step  3.8E-01 Charge  4.1E-02 (e) CTO  3.2E-01 (e) PW  6.2E-01 (e)
:DIRM :  MEMORY  3/8  RED  0.72 PRED  0.78 NEXT  0.96
:DIRP : |MSR1|= 2.610E-01 |PRATT|= 5.314E-01 ANGLE=  47.0 DEGREES
:DIRQ : |MSR1|= 7.161E-02 |PRATT|= 6.358E-01 ANGLE=   7.5 DEGREES
:DIRT : |MSR1|= 2.706E-01 |PRATT|= 8.286E-01 ANGLE=  51.4 DEGREES
:MIX  :  MSR1   REGULARIZATION:  5.30E-04 GREED: 0.06934  Newton 1.00  0.3266                
     
       CHARGES OF MIXED CHARGE DENSITY
:CTO   : INTERSTITIAL CHARGE  =    12.058259
:CPC   : INTERSTITIAL CHARGE  =    20.280936
:CTO001: CHARGE SPHERE   1    =    26.235454
:CTO002: CHARGE SPHERE   2    =    11.749982

:NEC03: NUCLEAR AND ELECTRONIC CHARGE    164.00000000   164.00000000

PW CHANGE     H    K    L             Current                    Change               Residue
:PTO001:      0    0    0  5.69092742E-02 0.00000000E+00 -1.104E-03  0.000E+00 -2.007E-03  0.000E+00
:PTO003:     -1   -1    0  4.56244316E-19 7.45103514E-03  2.049E-20  3.346E-04  3.009E-19  4.915E-03
:PTO004:     -1   -1   -1  8.01575685E-03-1.50342002E-04 -4.994E-04 -9.260E-05  2.295E-04 -4.922E-04
:PTO005:     -1   -1    1  8.01575685E-03 1.50342002E-04 -4.994E-04  9.260E-05  2.295E-04  4.922E-04
:PTO006:     -2    0    0 -9.68714754E-03 0.00000000E+00  1.262E-03  0.000E+00  7.308E-04  0.000E+00
:PTO007:     -2   -1    0 -1.84586941E-02 0.00000000E+00  6.434E-03  0.000E+00  1.067E-02  0.000E+00
:PTO008:     -2    0   -1  2.42567749E-19 3.96143197E-03 -4.412E-20 -7.205E-04 -1.436E-19 -2.345E-03
:PTO009:     -2   -1   -1 -1.23249846E-04-4.56307508E-04  3.871E-03 -9.157E-05  9.401E-03  1.949E-04
:PTO010:     -2   -1    1  1.23249846E-04-4.56307508E-04 -3.871E-03 -9.157E-05 -9.401E-03  1.949E-04
:PTO011:     -2   -2    0 -1.13634781E-03 0.00000000E+00 -4.293E-04  0.000E+00  1.036E-03  0.000E+00
:PTO013:     -2   -2   -1 -5.88053274E-03-5.88735292E-04 -1.543E-03 -1.423E-04 -3.201E-03 -6.752E-04
:PTO014:     -2   -2    1  5.88053274E-03-5.88735292E-04  1.543E-03 -1.423E-04  3.201E-03 -6.752E-04

:ENE  : ********** TOTAL ENERGY IN Ry =       -13468.50887786

:FOR001:   1.ATOM         55.333          0.000          0.000        -55.333 partial forces
:FOR002:   2.ATOM          2.299          0.000          0.000         -2.299 partial forces
       TOTAL FORCE WITH RESPECT TO THE GLOBAL COORDINATE SYSTEM:
:FGL001:   1.ATOM               -31.946245350    31.946245350   -31.946245350 partial forces
:FGL002:   2.ATOM                -1.327600974     1.327600974    -1.327600974 partial forces
 Euler-Maclaurian Coulomb
 Consistent 3/8+Simpson combinations at start/end
 New Mode for Coulomb Integral
 Extension of core to zero
 LDM version in phi
 Fifth-order quadrature in outwin
 Lebedev-Laikov Grid in lapw0


            ---------
:ITE005:  5. ITERATION
            ---------

:NATO :    2 INDEPENDENT AND    8 TOTAL ATOMS IN UNITCELL
       SUBSTANCE: blebleble                                                   

       LATTICE                      = P   
:LAT  : LATTICE CONSTANTS=  8.28289  8.28289  8.28289    1.571    1.571    1.571
:VOL  : UNIT CELL VOLUME =     568.25878
:POT  : POTENTIAL OPTION EX_PBE EC_PBE VX_PBE VC_PBE
       MODE OF CALCULATION IS       = RELA
       NON-SPINPOLARIZED CALCULATION
:IFFT  : FFT-parameters:  162  162  162 Factor: 3.00


   CONVERGENCE PARAMETER FOR PSEUDOCHARGE: NCON=  9
   MAXIMAL VALUE OF RMT(JATOM)*ABSK(NKK) : RK  =44.96350


:VKCOUL :  VK-COUL convergence: 0.356E-09
 Lebedev grid of          350
 :rho_min:  2.000000000000000E-008  1.000000000000000E-009
:VCOUL001 ATOMNUMBER=  1 Co1     VCOUL-ZERO =  0.68194E+00
:EFG001:                        EFG         =     0.17514   *10**21  V / m**2
                               V20  TOT/SRF=     0.15168     0.12199
                               V22  TOT/SRF=     0.00000     0.00000
                               V22M TOT/SRF=     0.00000     0.00000
                               V21  TOT/SRF=     0.00000     0.00000
                               V21M TOT/SRF=     0.00000     0.00000

             -0.08757    0.00000    0.00000       -0.08757    0.00000    0.00000
              0.00000   -0.08757    0.00000        0.00000   -0.08757    0.00000
              0.00000    0.00000    0.17514        0.00000    0.00000    0.17514

         MAIN DIRECTIONS OF THE EFG   1.0000  0.0000  0.0000
                                      0.0000  1.0000  0.0000
                                      0.0000  0.0000  1.0000
:ANG001:  ANGLE WITH OLD X-AXIS =         0.0

:ETA001:                         ASYMM. ETA =     0.00000


:VCOUL002 ATOMNUMBER=  2 Si1     VCOUL-ZERO =  0.35619E+00
:EFG002:                        EFG         =    -0.79280   *10**21  V / m**2
                               V20  TOT/SRF=    -0.68658     0.08737
                               V22  TOT/SRF=     0.00000     0.00000
                               V22M TOT/SRF=     0.00000     0.00000
                               V21  TOT/SRF=     0.00000     0.00000
                               V21M TOT/SRF=     0.00000     0.00000

              0.39640    0.00000    0.00000        0.39640    0.00000    0.00000
              0.00000    0.39640    0.00000        0.00000    0.39640    0.00000
              0.00000    0.00000   -0.79280        0.00000    0.00000   -0.79280

         MAIN DIRECTIONS OF THE EFG   1.0000  0.0000  0.0000
                                      0.0000  1.0000  0.0000
                                      0.0000  0.0000  1.0000
:ANG002:  ANGLE WITH OLD X-AXIS =         0.0

:ETA002:                         ASYMM. ETA =     0.00000


     HELLMANN-FEYNMAN-FORCE IN mRy/a.u. = |F|  Fx       Fy             Fz
:FHF001:   1.ATOM     35.693639310189      0.000000000000      0.000000000000    -35.693639310189

     HELLMANN-FEYNMAN-FORCE IN mRy/a.u. = |F|  Fx       Fy             Fz
:FHF002:   2.ATOM     59.757311952371      0.000000000000      0.000000000000     59.757311952371

:FIT001: LUSE= 13 SIGMA OF V-XC FIT FOR ATOM  1  0.1733190E-02
:FIT001: LUSE= 13 SIGMA OF V-XC FIT FOR ATOM  1  0.1733190E-02
:FIT002: LUSE= 13 SIGMA OF V-XC FIT FOR ATOM  2  0.1365347E-03
[...]
 Lebedev grid of          350
 :rho_min:  2.000000000000000E-008  1.000000000000000E-009
:VCOUL001 ATOMNUMBER=  1 Co1     VCOUL-ZERO =  0.69665E+00
:EFG001:                        EFG         =     0.27521   *10**21  V / m**2
                               V20  TOT/SRF=     0.23834     0.11204
                               V22  TOT/SRF=     0.00000     0.00000
                               V22M TOT/SRF=     0.00000     0.00000
                               V21  TOT/SRF=     0.00000     0.00000
                               V21M TOT/SRF=     0.00000     0.00000

             -0.13761    0.00000    0.00000       -0.13761    0.00000    0.00000
              0.00000   -0.13761    0.00000        0.00000   -0.13761    0.00000
              0.00000    0.00000    0.27521        0.00000    0.00000    0.27521

         MAIN DIRECTIONS OF THE EFG   1.0000  0.0000  0.0000
                                      0.0000  1.0000  0.0000
                                      0.0000  0.0000  1.0000
:ANG001:  ANGLE WITH OLD X-AXIS =         0.0

:ETA001:                         ASYMM. ETA =     0.00000


:VCOUL002 ATOMNUMBER=  2 Si1     VCOUL-ZERO =  0.33418E+00
:EFG002:                        EFG         =    -2.34304   *10**21  V / m**2
                               V20  TOT/SRF=    -2.02913     0.01071
                               V22  TOT/SRF=     0.00000     0.00000
                               V22M TOT/SRF=     0.00000     0.00000
                               V21  TOT/SRF=     0.00000     0.00000
                               V21M TOT/SRF=     0.00000     0.00000

              1.17152    0.00000    0.00000        1.17152    0.00000    0.00000
              0.00000    1.17152    0.00000        0.00000    1.17152    0.00000
              0.00000    0.00000   -2.34304        0.00000    0.00000   -2.34304

         MAIN DIRECTIONS OF THE EFG   1.0000  0.0000  0.0000
                                      0.0000  1.0000  0.0000
                                      0.0000  0.0000  1.0000
:ANG002:  ANGLE WITH OLD X-AXIS =         0.0

:ETA002:                         ASYMM. ETA =     0.00000


     HELLMANN-FEYNMAN-FORCE IN mRy/a.u. = |F|  Fx       Fy             Fz
:FHF001:   1.ATOM     74.730412689367      0.000000000000      0.000000000000     74.730412689367

     HELLMANN-FEYNMAN-FORCE IN mRy/a.u. = |F|  Fx       Fy             Fz
:FHF002:   2.ATOM    182.672650589923      0.000000000000      0.000000000000    182.672650589923

:FIT001: LUSE= 13 SIGMA OF V-XC FIT FOR ATOM  1  0.2107520E-02
:FIT001: LUSE= 13 SIGMA OF V-XC FIT FOR ATOM  1  0.2107520E-02
:FIT002: LUSE= 13 SIGMA OF V-XC FIT FOR ATOM  2  0.3941440E-03
:FIT002: LUSE= 13 SIGMA OF V-XC FIT FOR ATOM  2  0.3941440E-03
:DEN  : DENSITY INTEGRAL  =         -5821.03409614   (Ry)
       ELS_POTENTIAL_AT Z=0 and Z=0.5:   0.00000   0.00000
       ELS_POTENTIAL_AT Y=0 and Y=0.5:   0.00000   0.00000
:VZERO:v0,v0c,v0x  -0.85965   0.00000  -0.85965 v5,v5c,v5x  -0.85965   0.00000  -0.85965
:VZERY:v0,v0c,v0x  -0.85965   0.00000  -0.85965 v5,v5c,v5x  -0.85965   0.00000  -0.85965
:VZERX:v0,v0c,v0x   0.28186   1.11464  -0.83277 v5,v5c,v5x   0.28186   1.11464  -0.83277
:LMAX-WF:   10   Non-Spherical LMAX:   6

          ATOMIC SPHERE DEPENDENT PARAMETERS FOR ATOM  Co1       
:e__0001: OVERALL ENERGY PARAMETER IS    0.6505
          OVERALL BASIS SET ON ATOM IS LAPW
:E1_0001: E( 1)=    0.6505
             APW+lo
:E1_0001: E( 1)=   -3.4357   E(BOTTOM)=   -3.482   E(TOP)=   -3.390  1  2   214
             LOCAL ORBITAL
:E2_0001: E( 2)=    0.7111   E(BOTTOM)=    0.429   E(TOP)=    0.993  0  1   130
             APW+lo
:E0_0001: E( 0)=    0.6505
             APW+lo

          ATOMIC SPHERE DEPENDENT PARAMETERS FOR ATOM  Si1       
:e__0002: OVERALL ENERGY PARAMETER IS    0.6505
          OVERALL BASIS SET ON ATOM IS LAPW
:E0_0002: E( 0)=    0.6505
             APW+lo
:E1_0002: E( 1)=    0.6505
             APW+lo

       K=  0.083333  0.083333  0.083333            1
:RKM  : MATRIX SIZE   767LOs:  64  RKM= 8.00  WEIGHT= 8.00  PGR:    
       EIGENVALUES ARE:
:EIG00001:      -3.4315835   -3.4311829   -3.4307599   -3.4278942   -3.4271667
:EIG00006:      -3.4265857   -3.4259632   -3.4234662   -3.4234113   -3.4224958
:EIG00011:      -3.4223442   -3.4221421   -0.1645025    0.1823040    0.2218719
:EIG00016:       0.2874214    0.3994822    0.4469301    0.4810180    0.4985979
:EIG00021:       0.5593600    0.5906252    0.6174510    0.6182027    0.6298317
:EIG00026:       0.6384618    0.6404191    0.6416172    0.6660832    0.6756945
:EIG00031:       0.6939955    0.7690198    0.7748412    0.7854026    0.7883996
:EIG00036:       0.7953824    0.8345337    0.8506729    0.8716669    0.9947872
:EIG00041:       1.0150139    1.0361800    1.0675796    1.0790951    1.1221074
:EIG00046:       1.1438267    1.1833862    1.2381176    1.2642304    1.3038870
 
:EIG00051:       1.3993998    1.4230891    1.4583764    1.4780861    1.5587203
:EIG00056:       1.6484502    1.6593108    1.6622718    1.7891894    1.9228028
:EIG00061:       1.9240020    2.0647156    2.0879870    2.1210594    2.2132930
:EIG00066:       2.2372920    2.2706802    2.3243083    2.3267807    2.3679768
:EIG00071:       2.4120923    2.4310188    2.4651703    2.5504836    2.5682032
:EIG00076:       2.6214520    2.6255052    2.6401938    2.6851861    2.7153180
:EIG00081:       2.7352520    2.7781513    2.8445441    2.8820037    2.9022265
:EIG00086:       2.9764032    3.0041758    3.0303718    3.0412029    3.0436269
:EIG00091:       3.0872667    3.1209903    3.1439236    3.1603560    3.2139608
:EIG00096:       3.2707738    3.2920249    3.3655424    3.3745458    3.3770618
 
:EIG00101:       3.4512461    3.4672949    3.4731492    3.5287774    3.5560958
:EIG00106:       3.5835306    3.6185153    3.6276447    3.6719672    3.7252792
:EIG00111:       3.7428143    3.8407263    3.8770525    4.0229300    4.0783032
:EIG00116:       4.1020195    4.1679844    4.2347696    4.2490530    4.2561284
:EIG00121:       4.3116597    4.3289885    4.3765367    4.4245486    4.4704308
:EIG00126:       4.4895606    4.5214998    4.5502949    4.5587894    4.6103845
:EIG00131:       4.6286095    4.6594731    4.6731005    4.6773685    4.7525340
:EIG00136:       4.7598144    4.7981182    4.8136729    4.8166286    4.8642040
:EIG00141:       4.9239375    4.9481886    4.9588896    5.0061650    5.0152991
:EIG00146:       5.0774387    5.1170141    5.1184457    5.1559271    5.1649504
 
:EIG00151:       5.1662530    5.2215809    5.2475691    5.3033206    5.3336764
:EIG00156:       5.3637414    5.3903786    5.4224629    5.4239362    5.4709635
:EIG00161:       5.4878013    5.5450162    5.5490957    5.5580482    5.5955853
:EIG00166:       5.5958843    5.6162355    5.6995495    5.7447148    5.7703500
:EIG00171:       5.7756831    5.8046877    5.8259472
       ********************************************************

:KPT   :      NUMBER OF K-POINTS:    11
   0.0   0.0 angle (M,z), angle (M,x) deg
 
        SPIN-ORBIT EIGENVALUES:
     K=  0.083333  0.083333  0.083333            1
      MATRIX SIZE=  346   WEIGHT= 8.00
     EIGENVALUES ARE:
          -3.5163354   -3.5162741   -3.5160124   -3.5160000   -3.5157431
          -3.5156155   -3.5132763   -3.5132758   -3.3856005   -3.3848854
          -3.3846928   -3.3846775   -3.3840419   -3.3840395   -3.3833430
          -3.3829513   -3.3815675   -3.3815149   -3.3805867   -3.3803839
          -3.3784364   -3.3783045   -3.3781829   -3.3780109   -0.1645018
          -0.1645016    0.1820361    0.1825844    0.2216269    0.2221247
           0.2871451    0.2876936    0.3991841    0.3997745    0.4467035
           0.4471263    0.4806473    0.4813435    0.4983603    0.4987364

           0.5592363    0.5592835    0.5890289    0.5919910    0.6171893
           0.6172912    0.6173627    0.6187801    0.6296781    0.6297076
           0.6382557    0.6383186    0.6395621    0.6404549    0.6413776
           0.6419529    0.6654658    0.6667210    0.6753792    0.6760087
           0.6939402    0.6939775    0.7683767    0.7691706    0.7747847
           0.7752378    0.7850385    0.7856391    0.7878640    0.7892429
           0.7950865    0.7968112    0.8330725    0.8360465    0.8507790
           0.8508487    0.8699987    0.8735267    0.9936982    0.9955211

           1.0139069    1.0164133    1.0354916    1.0371388    1.0660102
           1.0693089    1.0772480    1.0810159    1.1220578    1.1223125
           1.1425797    1.1452219    1.1834499    1.1834518    1.2381184
           1.2382014    1.2630998    1.2653907    1.3038044    1.3040060
           1.3990239    1.3998133    1.4226418    1.4235477    1.4583768
           1.4583930    1.4780283    1.4783215    1.5586993    1.5587846
           1.6483926    1.6485221    1.6587345    1.6598857    1.6622993
           1.6623272    1.7890339    1.7893892
       ********************************************************
:GAP (global)   :    0.0    Ry =     0.0   eV (metal)
:GAP (this spin):    0.0    Ry =     0.0   eV (metal)
         Bandranges (emin - emax) and occupancy:
:BAN00066:  66    0.739446    0.775238  1.00000000
:BAN00067:  67    0.741064    0.785039  1.00000000
:BAN00068:  68    0.743998    0.785639  1.00000000
:BAN00069:  69    0.758282    0.792660  1.00000000
:BAN00070:  70    0.761530    0.795542  1.00000000
:BAN00071:  71    0.763576    0.800442  1.00000000
:BAN00072:  72    0.765152    0.802569  1.00000000
:BAN00073:  73    0.810631    0.833073  1.00000000
:BAN00074:  74    0.811898    0.836047  1.00000000
:BAN00075:  75    0.820354    0.850779  1.00000000
:BAN00076:  76    0.822496    0.850849  1.00000000
:BAN00077:  77    0.851372    0.925186  0.00000000
:BAN00078:  78    0.852125    0.927093  0.00000000
:BAN00079:  79    0.858555    0.993698  0.00000000
:BAN00080:  80    0.859872    0.995521  0.00000000
:BAN00081:  81    0.972570    1.152880  0.00000000
        Energy to separate low and high energystates:   -0.21450


:NOE  : NUMBER OF ELECTRONS          =   76.000

:FER  : F E R M I - ENERGY(TETRAH.M.)=   0.8508513289
:GMA  : POTENTIAL AND CHARGE CUT-OFF  20.00 Ry**.5

:POS001: ATOM   -1 X,Y,Z = 0.85410 0.64590 0.35410  MULT= 4  ZZ= 27.000  Co1       

       LMMAX 17
       LM=   0 0  1 0  2 0  3 0  3 3 -3 3  4 0  4 3 -4 3  5 0  5 3 -5 3  6 0  6 3 -6 3  6 6 -6 6


:CHA001: TOTAL VALENCE CHARGE INSIDE SPHERE   1 =  14.2815    (RMT=  2.2500 )
:PCS001: PARTIAL CHARGES SPHERE =  1 S,P,D,F,PZ,PXY, D-Z2,D-XY,X2Y2,D-XZ,YZ 
:QTL001: 0.3719 6.4880 7.3915 0.0255 2.1693 4.3187 0.0000 1.5029 2.9636 2.9249 0.0000 0.0000
        Q-s-low E-s-low   Q-p-low E-p-low   Q-d-low E-d-low   Q-f-low E-f-low
:EPL001:  0.0000 10.0000    5.9848 -3.4264    0.0001 -3.4262    0.0000 10.0000
        Q-s-hi  E-s-hi    Q-p-hi  E-p-hi    Q-d-hi  E-d-hi    Q-f-hi  E-f-hi 
:EPH001:  0.3718  0.2958    0.5032  0.4834    7.3915  0.6826    0.0255  0.5858
:VZZ001: EFG INSIDE SPHERE   1 =     0.099375      UP TO R =   2.25000

:POS002: ATOM   -2 X,Y,Z = 0.15654 0.34346 0.65654  MULT= 4  ZZ= 14.000  Si1       

       LMMAX 17
       LM=   0 0  1 0  2 0  3 0  3 3 -3 3  4 0  4 3 -4 3  5 0  5 3 -5 3  6 0  6 3 -6 3  6 6 -6 6


:CHA002: TOTAL VALENCE CHARGE INSIDE SPHERE   2 =   1.6515    (RMT=  1.9300 )
:PCS002: PARTIAL CHARGES SPHERE =  2 S,P,D,F,PZ,PXY, D-Z2,D-XY,X2Y2,D-XZ,YZ 
:QTL002: 0.6670 0.8192 0.1497 0.0133 0.2961 0.5230 0.0000 0.0298 0.0525 0.0675 0.0000 0.0000
        Q-s-low E-s-low   Q-p-low E-p-low   Q-d-low E-d-low   Q-f-low E-f-low
:EPL002:  0.0002 -3.4244    0.0003 -3.4250    0.0002 -3.4255    0.0001 -3.4202
        Q-s-hi  E-s-hi    Q-p-hi  E-p-hi    Q-d-hi  E-d-hi    Q-f-hi  E-f-hi 
:EPH002:  0.6668  0.1840    0.8188  0.5009    0.1495  0.6249    0.0132  0.6614
:VZZ002: EFG INSIDE SPHERE   2 =    -2.425934      UP TO R =   1.93000

:CHA  : TOTAL VALENCE CHARGE INSIDE UNIT CELL =      76.000000

:SUM  : SUM OF EIGENVALUES =         -52.688461387


        1.ATOM      Co1                   5 CORE STATES
       CORE-FORCE in mRy/a.u. = |F|      Fx             Fy             Fz
:FCO001:   1.ATOM     83.540830311849      0.000000000000      0.000000000000    -83.540830311849

:1S 001: 1S                -556.567471395 Ry
:2S 001: 2S                 -64.658196914 Ry
:2PP001: 2P*                -55.904518622 Ry
:2P 001: 2P                 -54.814906173 Ry
:3S 001: 3S                  -6.121893305 Ry

        2.ATOM      Si1                   4 CORE STATES
       CORE-FORCE in mRy/a.u. = |F|      Fx             Fy             Fz
:FCO002:   2.ATOM    182.115820507137      0.000000000000      0.000000000000   -182.115820507137

:1S 002: 1S                -130.026838545 Ry
:2S 002: 2S                  -9.031685001 Ry
:2PP002: 2P*                 -5.832842186 Ry
:2P 002: 2P                  -5.785325070 Ry
:CINT001 Core Integral Atom   1   11.99889147
:CINT002 Core Integral Atom   2    9.99463043

       DENSITY AT NUCLEUS
        JATOM        VALENCE       SEMI-CORE          CORE           TOTAL
:RTO001:   1        6.817460        0.000000    17496.663783    17503.481243
:RTO002:   2        7.034923        0.000000     1886.330207     1893.365130
:K-LIST:Reduced k-vector list     6435     468
     
       CHARGES OF NEW CHARGE DENSITY
:NTO   : INTERSTITIAL CHARGE  =    12.268330
:NPC   : INTERSTITIAL CHARGE  =    19.486057
:NTO001: CHARGE SPHERE   1    =    26.280343
:NTO002: CHARGE SPHERE   2    =    11.646180

:NEC01: NUCLEAR AND ELECTRONIC CHARGE    164.00000000   163.97442032 Plane Wave
     
       CHARGES OF OLD CHARGE DENSITY
:OTO   : INTERSTITIAL CHARGE  =    12.293485
:OPC   : INTERSTITIAL CHARGE  =    19.526577
:OTO001: CHARGE SPHERE   1    =    26.280610
:OTO002: CHARGE SPHERE   2    =    11.646018

:NEC02: NUCLEAR AND ELECTRONIC CHARGE    164.00000000   164.00000000
     
       CONVERGENCE TEST
:DTO001: DIFFERENCE IN SPHERE  1 =  0.0005072
:DTO002: DIFFERENCE IN SPHERE  2 =  0.0001681

:DIS  :  CHARGE DISTANCE      (  0.0005072 for atom    1 spin 1)      0.0003376
 
******************************************************
* Multisecant Mixing Release 10.8.9                  *
* Standard Mode with step bound                      *
* Multisecant MSR1 Algorithm                         *
* Regularization       2.000E-04                     *
* Minimum Greed        1.000E-03                     *
* Max Number of Memory Steps    8                    *
******************************************************
 
:INFOC: Max vcoul   0.00022 for atom   2 average:   0.00012

:FULLRMS/Atom   0.0004214362
:PLANE:  PW /ATOM     2.42088 DISTAN   2.02E-04 %  8.33E-03
:CHARG:  CLM/ATOM   258.51266 DISTAN   5.61E-04 %  2.17E-04
:INFOF Fractnow,Tolerror,TolReject,qtot     0.080     1.667     3.000     0.000 F F F

Step History
        Dmix         Dmixt        Red     Pred      Step      Lambda    MagAbs    Beta
  2   7.4211E-02   2.4737E-02  4.47E-01  1.00E+00  1.00E-01  1.00E+00  9.89E-02  1.00E+00
  3   7.4211E-02   1.4496E-02  9.08E-01  9.40E-01  1.12E-01  1.00E+00  1.41E-01  1.00E+00
  4   9.8172E-02   5.0152E-02  7.22E-01  7.79E-01  2.46E-01  1.04E+00  2.83E-01  1.00E+00
  5   6.9340E-02   6.9340E-02  8.30E-01  9.61E-01  3.77E-01  1.13E+00  3.13E-01  1.00E+00
  6   1.3868E-01   9.2051E-02  4.39E-01  4.90E-01  4.37E-01  1.07E+00  3.01E-01  1.00E+00
  7   2.7736E-01   2.7736E-01  5.66E-01  8.02E-01  9.33E-01  1.11E+00  2.82E-01  1.00E+00
  8   4.1878E-01   4.1878E-01  1.22E-01  1.51E-01  1.05E+00  1.08E+00  1.80E-01  1.00E+00
  9   8.3756E-01   8.3756E-01  7.15E-01  5.84E-01  4.74E+00  1.21E+00  9.93E-02  1.00E+00
 10   4.8817E-01   4.8817E-01  1.00E+00  1.03E-01  3.62E+00  1.22E+00  5.41E-02  1.00E+00
:NOTE :  Number of Memory Steps    8 Skipping    1
:INFOSL ,t1/t2,syy/sys,sqrt(syy/sss)     0.002     0.000     5.850     4.980     3.770     1.321     4.980     3.571     1.394

:PREDicted Charge, CTotal, PW Trust   6.92E-04   4.50E-03   3.73E-03
:PREDicted DMix, Beta, BLim           1.84E+00   9.86E-01   8.92E-01

Eigenvalues, unscaled except for SY+YY with Slambda=   1.38370 Ylambda=   1.00000
   #     SY Real       SY Imag         SS            YY        SY+YY Real     SY+YY Imag
   1   1.74408E+00   0.00000E+00   1.70009E+00   2.14570E+00   4.45909E+00   0.00000E+00
   2   3.55740E-01   1.24862E-02   2.62511E-01   1.55459E+00   2.13220E+00   0.00000E+00
   3   3.55740E-01  -1.24862E-02   1.64498E-01   4.85162E-01   9.52893E-01   0.00000E+00
   4   1.03352E-01   0.00000E+00   6.31767E-02   1.60177E-01   3.27111E-01   0.00000E+00
   5   3.88524E-02   0.00000E+00   1.21056E-02   5.92652E-02   1.28124E-01   0.00000E+00
   6   2.12599E-04   0.00000E+00   1.59172E-04   2.74979E-04   5.64283E-04   0.00000E+00
   7  -4.24099E-09   0.00000E+00   1.04190E-06   5.55245E-06   8.87262E-06   0.00000E+00
   8   2.41331E-06   0.00000E+00   2.71011E-08   6.88664E-08   6.30246E-08   0.00000E+00
 
:SING : Singular value  4.472E+00  Weight  1.000E+00  Projection -1.047E-04
:SING : Singular value  2.145E+00  Weight  1.000E+00  Projection -6.376E-04
:SING : Singular value  9.464E-01  Weight  1.000E+00  Projection -9.915E-05
:SING : Singular value  3.268E-01  Weight  1.000E+00  Projection  7.681E-04
:SING : Singular value  1.280E-01  Weight  1.000E+00  Projection -3.922E-04
:SING : Singular value  5.643E-04  Weight  2.847E-01  Projection  1.052E-02
:SING : Singular value  8.872E-06  Weight  9.836E-05  Projection -9.403E-06
:SING : Singular value  6.302E-08  Weight  4.964E-09  Projection -3.327E-09

:RANK :  ACTIVE   5.28/8  =  66.06 % ; YY RANK   5.09/8  =  63.58 %
:TRUST:  Step  2.4E+01 Charge  1.4E-02 (e) CTO  1.0E-01 (e) PW  1.6E-01 (e)
:DIRM :  MEMORY  8/8  RED  0.08 PRED  0.10 NEXT  0.45
:DIRP : |MSR1|= 3.409E-04 |PRATT|= 4.031E-04 ANGLE=  26.5 DEGREES
:DIRQ : |MSR1|= 5.531E-04 |PRATT|= 1.122E-03 ANGLE=  45.1 DEGREES
:DIRT : |MSR1|= 6.497E-04 |PRATT|= 1.192E-03 ANGLE=  43.6 DEGREES
:MIX  :  MSE1   REGULARIZATION:  8.94E-04 GREED: 0.97634  Newton 1.00  0.5451                
     
       CHARGES OF MIXED CHARGE DENSITY
:CTO   : INTERSTITIAL CHARGE  =    12.293405
:CPC   : INTERSTITIAL CHARGE  =    19.526163
:CTO001: CHARGE SPHERE   1    =    26.280560
:CTO002: CHARGE SPHERE   2    =    11.646089

:NEC03: NUCLEAR AND ELECTRONIC CHARGE    164.00000000   164.00000000

PW CHANGE     H    K    L             Current                    Change               Residue
:PTO001:      0    0    0  5.59948537E-02 0.00000000E+00 -8.720E-07  0.000E+00  9.375E-07  0.000E+00
:PTO003:     -1   -1    0  4.58087313E-19 7.48113355E-03 -3.843E-22 -6.276E-06 -5.875E-22 -9.595E-06
:PTO004:     -1   -1   -1  8.44856730E-03 2.93415623E-05 -6.311E-08  5.603E-07 -1.340E-07  1.104E-06
:PTO005:     -1   -1    1  8.44856730E-03-2.93415623E-05 -6.311E-08 -5.603E-07 -1.340E-07 -1.104E-06
:PTO006:     -2    0    0 -1.02841226E-02 0.00000000E+00  2.324E-06  0.000E+00  2.127E-06  0.000E+00
:PTO007:     -2   -1    0 -1.53503244E-02 0.00000000E+00  6.507E-07  0.000E+00  3.960E-07  0.000E+00
:PTO008:     -2    0   -1  1.25663833E-19 2.05224613E-03 -4.302E-22 -7.025E-06 -4.882E-22 -7.973E-06
:PTO009:     -2   -1   -1  4.73270681E-03-1.36402028E-04 -4.194E-06  3.962E-07 -3.735E-06  5.172E-07
:PTO010:     -2   -1    1 -4.73270681E-03-1.36402028E-04  4.194E-06  3.962E-07  3.735E-06  5.172E-07
:PTO011:     -2   -2    0  3.05443802E-05 0.00000000E+00 -5.786E-07  0.000E+00 -7.296E-07  0.000E+00
:PTO013:     -2   -2   -1 -7.53006656E-03-1.23037343E-03 -2.694E-06  3.080E-07 -3.174E-06  2.054E-07
:PTO014:     -2   -2    1  7.53006656E-03-1.23037343E-03  2.694E-06  3.080E-07  3.174E-06  2.054E-07

:ENE  : ********** TOTAL ENERGY IN Ry =       -13468.47382516

:FOR001:   1.ATOM          8.810          0.000          0.000         -8.810 partial forces
:FOR002:   2.ATOM          0.557          0.000          0.000          0.557 partial forces
       TOTAL FORCE WITH RESPECT TO THE GLOBAL COORDINATE SYSTEM:
:FGL001:   1.ATOM                -5.086696986     5.086696986    -5.086696986 partial forces
:FGL002:   2.ATOM                 0.321485998    -0.321485998     0.321485998 partial forces
