    8    8    1    1
  0.1052590E+02  0.4383117E-09  0.4383117E-09  0.4383117E-09  0.5000000E-15
  1.000000000000000E-004
  CAR 
 CoSi                                    
     76     35    422
 
  0.0000000E+00  0.0000000E+00  0.0000000E+00  0.2985075E-02
      1        -47.506886   1.000000
      2        -47.506886   1.000000
      3        -47.506885   1.000000
      4        -47.506885   1.000000
      5        -47.504411   1.000000
      6        -47.504411   1.000000
      7        -47.471135   1.000000
      8        -47.471135   1.000000
      9        -45.734552   1.000000
     10        -45.734552   1.000000
     11        -45.721381   1.000000
     12        -45.721381   1.000000
     13        -45.721381   1.000000
     14        -45.721380   1.000000
     15        -45.703786   1.000000
     16        -45.703786   1.000000
     17        -45.671876   1.000000
     18        -45.671876   1.000000
     19        -45.671875   1.000000
     20        -45.671875   1.000000
     21        -45.633159   1.000000
     22        -45.633159   1.000000
     23        -45.633158   1.000000
     24        -45.633158   1.000000
     25         -2.003222   1.000000
     26         -2.003222   1.000000
     27          3.608101   1.000000
     28          3.608101   1.000000
     29          3.608101   1.000000
     30          3.608101   1.000000
     31          3.620174   1.000000
     32          3.620174   1.000000
     33          6.302669   1.000000
     34          6.302669   1.000000
     35          6.315649   1.000000
     36          6.315649   1.000000
     37          6.315649   1.000000
     38          6.315649   1.000000
     39          8.029689   1.000000
     40          8.029689   1.000000
     41          8.029690   1.000000
     42          8.029690   1.000000
     43          8.069110   1.000000
     44          8.069110   1.000000
     45          8.721515   1.000000
     46          8.721515   1.000000
     47          8.755807   1.000000
     48          8.755807   1.000000
     49          8.755807   1.000000
     50          8.755807   1.000000
     51          9.095545   1.000000
     52          9.095546   1.000000
     53          9.095546   1.000000
     54          9.095546   1.000000
     55          9.110005   1.000000
     56          9.110005   1.000000
     57          9.558628   1.000000
     58          9.558628   1.000000
     59          9.558628   1.000000
     60          9.558628   1.000000
     61          9.588631   1.000000
     62          9.588631   1.000000
     63         10.960919   1.000000
     64         10.960919   1.000000
     65         11.007743   1.000000
     66         11.007743   1.000000
     67         11.007743   1.000000
     68         11.007743   1.000000
     69         11.132399   1.000000
     70         11.132399   1.000000
     71         11.132399   1.000000
     72         11.132399   1.000000
     73         11.902716   1.000000
     74         11.902716   1.000000
     75         11.955431   0.500079
     76         11.955431   0.500040
     77         11.955431   0.499951
     78         11.955431   0.499930
     79         14.571974   0.000000
     80         14.571974   0.000000
     81         14.571974   0.000000
     82         14.571974   0.000000
     83         14.622107   0.000000
     84         14.622107   0.000000
     85         14.948617   0.000000
     86         14.948617   0.000000
     87         14.948617   0.000000
     88         14.948617   0.000000
     89         15.642442   0.000000
     90         15.642442   0.000000
     91         15.642442   0.000000
     92         15.642442   0.000000
     93         15.648123   0.000000
     94         15.648123   0.000000
     95         16.914485   0.000000
     96         16.914485   0.000000
     97         18.196558   0.000000
     98         18.196558   0.000000
     99         18.238204   0.000000
    100         18.238204   0.000000
    101         18.238204   0.000000
    102         18.238204   0.000000
    103         20.503448   0.000000
    104         20.503448   0.000000
    105         20.503448   0.000000
    106         20.503448   0.000000
    107         20.510143   0.000000
    108         20.510143   0.000000
    109         21.638333   0.000000
    110         21.638333   0.000000
    111         22.440551   0.000000
    112         22.440551   0.000000
    113         22.451217   0.000000
    114         22.451217   0.000000
    115         22.451218   0.000000
    116         22.451218   0.000000
    117         23.047400   0.000000
    118         23.047400   0.000000
    119         27.387177   0.000000
    120         27.387177   0.000000
    121         27.387177   0.000000
    122         27.387177   0.000000
    123         29.471826   0.000000
    124         29.471826   0.000000
    125         29.471827   0.000000
    126         29.471827   0.000000
    127         29.471833   0.000000
    128         29.471833   0.000000
    129         30.741270   0.000000
    130         30.741270   0.000000
    131         31.350148   0.000000
    132         31.350148   0.000000
    133         31.350148   0.000000
    134         31.350148   0.000000
    135         31.896976   0.000000
    136         31.896976   0.000000
    137         31.926660   0.000000
    138         31.926660   0.000000
    139         31.926660   0.000000
    140         31.926660   0.000000
    141         33.650055   0.000000
    142         33.650055   0.000000
    143         33.650056   0.000000
    144         33.650056   0.000000
    145         33.669143   0.000000
    146         33.669143   0.000000
    147         35.908278   0.000000
    148         35.908278   0.000000
    149         35.914528   0.000000
    150         35.914528   0.000000
    151         35.914529   0.000000
    152         35.914530   0.000000
    153         36.367847   0.000000
    154         36.367847   0.000000
    155         36.367847   0.000000
    156         36.367847   0.000000
    157         36.559106   0.000000
    158         36.559106   0.000000
    159         36.589721   0.000000
    160         36.589721   0.000000
    161         36.589722   0.000000
    162         36.589722   0.000000
    163         38.843839   0.000000
    164         38.843839   0.000000
    165         38.844409   0.000000
    166         38.844409   0.000000
    167         38.844409   0.000000
    168         38.844409   0.000000
    169         40.075956   0.000000
    170         40.075956   0.000000
    171         40.965677   0.000000
    172         40.965677   0.000000
    173         40.965678   0.000000
    174         40.965678   0.000000
    175         40.981096   0.000000
    176         40.981096   0.000000
    177         41.556526   0.000000
    178         41.556526   0.000000
    179         41.890716   0.000000
    180         41.890716   0.000000
    181         41.890716   0.000000
    182         41.890716   0.000000
    183         42.055188   0.000000
    184         42.055188   0.000000
    185         42.113555   0.000000
    186         42.113555   0.000000
    187         42.113555   0.000000
    188         42.113555   0.000000
    189         44.330839   0.000000
    190         44.330839   0.000000
    191         44.516568   0.000000
    192         44.516568   0.000000
    193         44.516568   0.000000
    194         44.516568   0.000000
    195         45.591316   0.000000
    196         45.591316   0.000000
    197         46.102721   0.000000
    198         46.102721   0.000000
    199         46.143120   0.000000
    200         46.143120   0.000000
    201         46.143120   0.000000
    202         46.143120   0.000000
    203         46.525404   0.000000
    204         46.525404   0.000000
    205         46.532281   0.000000
    206         46.532281   0.000000
    207         46.532281   0.000000
    208         46.532281   0.000000
    209         46.607624   0.000000
    210         46.607624   0.000000
    211         46.607624   0.000000
    212         46.607624   0.000000
    213         47.277783   0.000000
    214         47.277783   0.000000
    215         47.277783   0.000000
    216         47.277783   0.000000
    217         47.283454   0.000000
    218         47.283454   0.000000
    219         49.927245   0.000000
    220         49.927245   0.000000
    221         49.927245   0.000000
    222         49.927245   0.000000
    223         49.931777   0.000000
    224         49.931777   0.000000
    225         53.513469   0.000000
    226         53.513469   0.000000
    227         56.946752   0.000000
    228         56.946753   0.000000
    229         56.946753   0.000000
    230         56.946753   0.000000
    231         56.949404   0.000000
    232         56.949404   0.000000
    233         57.424551   0.000000
    234         57.424551   0.000000
    235         57.431838   0.000000
    236         57.431838   0.000000
    237         57.431838   0.000000
    238         57.431838   0.000000
    239         58.574299   0.000000
    240         58.574299   0.000000
    241         58.574299   0.000000
    242         58.574299   0.000000
    243         59.478206   0.000000
    244         59.478206   0.000000
    245         59.494366   0.000000
    246         59.494366   0.000000
    247         59.494366   0.000000
    248         59.494366   0.000000
    249         60.247268   0.000000
    250         60.247268   0.000000
    251         60.249238   0.000000
    252         60.249238   0.000000
    253         60.249239   0.000000
    254         60.249239   0.000000
    255         60.829541   0.000000
    256         60.829541   0.000000
    257         62.524747   0.000000
    258         62.524747   0.000000
    259         62.526222   0.000000
    260         62.526222   0.000000
    261         62.526222   0.000000
    262         62.526222   0.000000
    263         62.648055   0.000000
    264         62.648055   0.000000
    265         62.648055   0.000000
    266         62.648055   0.000000
    267         63.410664   0.000000
    268         63.410664   0.000000
    269         63.412557   0.000000
    270         63.412557   0.000000
    271         63.412557   0.000000
    272         63.412558   0.000000
    273         63.761225   0.000000
    274         63.761225   0.000000
    275         63.767108   0.000000
    276         63.767108   0.000000
    277         63.767108   0.000000
    278         63.767108   0.000000
    279         66.851614   0.000000
    280         66.851615   0.000000
    281         66.851615   0.000000
    282         66.851615   0.000000
    283         66.851884   0.000000
    284         66.851884   0.000000
    285         67.601358   0.000000
    286         67.601358   0.000000
    287         67.828062   0.000000
    288         67.828062   0.000000
    289         67.828062   0.000000
    290         67.828062   0.000000
    291         67.828755   0.000000
    292         67.828755   0.000000
    293         67.859172   0.000000
    294         67.859172   0.000000
    295         67.859172   0.000000
    296         67.859172   0.000000
    297         68.681029   0.000000
    298         68.681029   0.000000
    299         68.681029   0.000000
    300         68.681029   0.000000
    301         68.682865   0.000000
    302         68.682865   0.000000
    303         68.889436   0.000000
    304         68.889436   0.000000
    305         68.889436   0.000000
    306         68.889436   0.000000
    307         69.291938   0.000000
    308         69.291939   0.000000
    309         70.312994   0.000000
    310         70.312994   0.000000
    311         70.312994   0.000000
    312         70.312994   0.000000
    313         70.314578   0.000000
    314         70.314578   0.000000
    315         70.894232   0.000000
    316         70.894232   0.000000
    317         70.899717   0.000000
    318         70.899717   0.000000
    319         70.899717   0.000000
    320         70.899717   0.000000
    321         72.678340   0.000000
    322         72.678340   0.000000
    323         72.685301   0.000000
    324         72.685301   0.000000
    325         72.685301   0.000000
    326         72.685301   0.000000
    327         74.250799   0.000000
    328         74.250799   0.000000
    329         74.259918   0.000000
    330         74.259918   0.000000
    331         74.259918   0.000000
    332         74.259918   0.000000
    333         75.409942   0.000000
    334         75.409942   0.000000
    335         75.412808   0.000000
    336         75.412808   0.000000
    337         75.412808   0.000000
    338         75.412808   0.000000
    339         75.708960   0.000000
    340         75.708962   0.000000
    341         77.387706   0.000000
    342         77.387706   0.000000
    343         77.387707   0.000000
    344         77.387707   0.000000
    345         77.752991   0.000000
    346         77.752992   0.000000
    347         77.763614   0.000000
    348         77.763615   0.000000
    349         77.763616   0.000000
    350         77.763617   0.000000
    351         77.939420   0.000000
    352         77.939422   0.000000
    353         77.960653   0.000000
    354         77.960654   0.000000
    355         77.960655   0.000000
    356         77.960657   0.000000
    357         78.176776   0.000000
    358         78.177074   0.000000
    359         79.277273   0.000000
    360         79.277330   0.000000
    361         79.281776   0.000000
    362         79.281816   0.000000
    363         79.281856   0.000000
    364         79.281896   0.000000
    365         80.602822   0.000000
    366         80.607289   0.000000
    367         81.287628   0.000000
    368         81.287681   0.000000
    369         81.287856   0.000000
    370         81.288255   0.000000
    371         81.293047   0.000000
    372         81.293226   0.000000
    373         81.926468   0.000000
    374         81.928157   0.000000
    375         82.831103   0.000000
    376         82.831145   0.000000
    377         82.831172   0.000000
    378         82.831202   0.000000
    379         83.490968   0.000000
    380         83.491110   0.000000
    381         83.491143   0.000000
    382         83.491335   0.000000
    383         83.507979   0.000000
    384         83.508280   0.000000
    385         84.977121   0.000000
    386         84.978267   0.000000
    387         84.982824   0.000000
    388         84.983902   0.000000
    389         84.986552   0.000000
    390         84.989617   0.000000
    391         85.083022   0.000000
    392         85.095164   0.000000
    393         85.726527   0.000000
    394         85.726911   0.000000
    395         85.734780   0.000000
    396         85.735202   0.000000
    397         85.735664   0.000000
    398         85.737194   0.000000
    399         85.915799   0.000000
    400         85.915964   0.000000
    401         85.917025   0.000000
    402         85.918810   0.000000
    403         87.495990   0.000000
    404         87.645642   0.000000
    405         87.850072   0.000000
    406         87.851593   0.000000
    407         87.853127   0.000000
    408         87.859901   0.000000
    409         87.869798   0.000000
    410         87.885918   0.000000
    411         89.034936   0.000000
    412         89.051596   0.000000
    413         89.061994   0.000000
    414         89.075581   0.000000
    415         89.104767   0.000000
    416         89.191734   0.000000
    417         90.440891   0.000000
    418         90.473727   0.000000
    419         90.534327   0.000000
    420         90.898355   0.000000
    421         91.223990   0.000000
    422         91.320754   0.000000
 
  0.3333333E-01  0.0000000E+00  0.0000000E+00  0.0000000E+00
      1        -47.507795   1.000000
      2        -47.507115   1.000000
      3        -47.506714   1.000000
      4        -47.505767   1.000000
      5        -47.504887   1.000000
      6        -47.503620   1.000000
      7        -47.471182   1.000000
      8        -47.471177   1.000000
      9        -45.735677   1.000000
     10        -45.733256   1.000000
     11        -45.722484   1.000000
     12        -45.722354   1.000000
     13        -45.720410   1.000000
     14        -45.720068   1.000000
     15        -45.704457   1.000000
     16        -45.703140   1.000000
     17        -45.674143   1.000000
     18        -45.672488   1.000000
     19        -45.670957   1.000000
     20        -45.669482   1.000000
     21        -45.633753   1.000000
     22        -45.633390   1.000000
     23        -45.632970   1.000000
     24        -45.632657   1.000000
     25         -1.994694   1.000000
     26         -1.994693   1.000000
     27          3.419190   1.000000
     28          3.425800   1.000000
     29          3.617498   1.000000
     30          3.617523   1.000000
     31          3.779831   1.000000
     32          3.789229   1.000000
     33          6.164346   1.000000
     34          6.174170   1.000000
     35          6.316507   1.000000
     36          6.316612   1.000000
     37          6.462308   1.000000
     38          6.469447   1.000000
     39          7.867048   1.000000
     40          7.887571   1.000000
     41          8.013472   1.000000
     42          8.024965   1.000000
     43          8.189368   1.000000
     44          8.222235   1.000000
     45          8.719238   1.000000
     46          8.720369   1.000000
     47          8.752319   1.000000
     48          8.757711   1.000000
     49          8.767526   1.000000
     50          8.772441   1.000000
     51          9.092766   1.000000
     52          9.093588   1.000000
     53          9.096013   1.000000
     54          9.096547   1.000000
     55          9.106805   1.000000
     56          9.112249   1.000000
     57          9.514413   1.000000
     58          9.532156   1.000000
     59          9.565770   1.000000
     60          9.571659   1.000000
     61          9.612499   1.000000
     62          9.632569   1.000000
     63         10.930865   1.000000
     64         10.969409   1.000000
     65         10.973106   1.000000
     66         10.987993   1.000000
     67         11.030800   1.000000
     68         11.048861   1.000000
     69         11.125977   1.000000
     70         11.130951   1.000000
     71         11.133857   1.000000
     72         11.137312   1.000000
     73         11.854748   1.000000
     74         11.897774   1.000000
     75         11.926179   0.999982
     76         11.939987   0.985529
     77         11.996178   0.000000
     78         12.020048   0.000000
     79         14.445261   0.000000
     80         14.468002   0.000000
     81         14.523941   0.000000
     82         14.557843   0.000000
     83         14.659962   0.000000
     84         14.699830   0.000000
     85         14.878397   0.000000
     86         14.916794   0.000000
     87         14.984132   0.000000
     88         14.997083   0.000000
     89         15.654421   0.000000
     90         15.662815   0.000000
     91         15.665093   0.000000
     92         15.674737   0.000000
     93         15.676772   0.000000
     94         15.689097   0.000000
     95         16.951236   0.000000
     96         16.951475   0.000000
     97         17.935826   0.000000
     98         17.964797   0.000000
     99         18.253998   0.000000
    100         18.261760   0.000000
    101         18.520013   0.000000
    102         18.545758   0.000000
    103         20.424393   0.000000
    104         20.429631   0.000000
    105         20.437674   0.000000
    106         20.438221   0.000000
    107         20.451083   0.000000
    108         20.461522   0.000000
    109         21.686530   0.000000
    110         21.687517   0.000000
    111         22.375391   0.000000
    112         22.379096   0.000000
    113         22.503965   0.000000
    114         22.506383   0.000000
    115         22.544209   0.000000
    116         22.554181   0.000000
    117         23.166720   0.000000
    118         23.172207   0.000000
    119         27.264273   0.000000
    120         27.264927   0.000000
    121         27.389777   0.000000
    122         27.390058   0.000000
    123         29.398484   0.000000
    124         29.399991   0.000000
    125         29.422497   0.000000
    126         29.423123   0.000000
    127         29.498931   0.000000
    128         29.499357   0.000000
    129         30.819142   0.000000
    130         30.822525   0.000000
    131         31.178954   0.000000
    132         31.179706   0.000000
    133         31.372025   0.000000
    134         31.372533   0.000000
    135         31.792836   0.000000
    136         31.808554   0.000000
    137         31.930852   0.000000
    138         31.950838   0.000000
    139         32.120079   0.000000
    140         32.122977   0.000000
    141         33.535283   0.000000
    142         33.538254   0.000000
    143         33.678581   0.000000
    144         33.683735   0.000000
    145         33.695453   0.000000
    146         33.695747   0.000000
    147         35.760045   0.000000
    148         35.761788   0.000000
    149         35.813875   0.000000
    150         35.814274   0.000000
    151         36.030493   0.000000
    152         36.040403   0.000000
    153         36.225563   0.000000
    154         36.229815   0.000000
    155         36.431536   0.000000
    156         36.432553   0.000000
    157         36.528380   0.000000
    158         36.544181   0.000000
    159         36.655702   0.000000
    160         36.663748   0.000000
    161         36.765291   0.000000
    162         36.784370   0.000000
    163         38.777306   0.000000
    164         38.779712   0.000000
    165         38.805505   0.000000
    166         38.809097   0.000000
    167         38.893512   0.000000
    168         38.896974   0.000000
    169         40.135824   0.000000
    170         40.138580   0.000000
    171         40.753766   0.000000
    172         40.767039   0.000000
    173         40.923688   0.000000
    174         40.933743   0.000000
    175         40.983619   0.000000
    176         40.985932   0.000000
    177         41.581786   0.000000
    178         41.582714   0.000000
    179         41.721160   0.000000
    180         41.736998   0.000000
    181         41.914001   0.000000
    182         41.922125   0.000000
    183         41.924881   0.000000
    184         41.956204   0.000000
    185         42.205877   0.000000
    186         42.222969   0.000000
    187         42.495588   0.000000
    188         42.529891   0.000000
    189         44.218364   0.000000
    190         44.325004   0.000000
    191         44.374112   0.000000
    192         44.476397   0.000000
    193         44.495148   0.000000
    194         44.495728   0.000000
    195         45.515715   0.000000
    196         45.520646   0.000000
    197         45.820162   0.000000
    198         45.831598   0.000000
    199         45.937863   0.000000
    200         45.962680   0.000000
    201         46.269410   0.000000
    202         46.280157   0.000000
    203         46.404889   0.000000
    204         46.412202   0.000000
    205         46.607780   0.000000
    206         46.608137   0.000000
    207         46.657210   0.000000
    208         46.668468   0.000000
    209         46.720575   0.000000
    210         46.729744   0.000000
    211         46.793427   0.000000
    212         46.793845   0.000000
    213         47.279101   0.000000
    214         47.280869   0.000000
    215         47.424611   0.000000
    216         47.432251   0.000000
    217         47.562599   0.000000
    218         47.580395   0.000000
    219         49.775484   0.000000
    220         49.777206   0.000000
    221         50.015658   0.000000
    222         50.017897   0.000000
    223         50.190397   0.000000
    224         50.194173   0.000000
    225         53.450795   0.000000
    226         53.451145   0.000000
    227         56.503369   0.000000
    228         56.505150   0.000000
    229         56.897494   0.000000
    230         56.897688   0.000000
    231         56.950929   0.000000
    232         56.951150   0.000000
    233         57.269155   0.000000
    234         57.274433   0.000000
    235         57.411094   0.000000
    236         57.416088   0.000000
    237         57.703989   0.000000
    238         57.705288   0.000000
    239         58.503616   0.000000
    240         58.503968   0.000000
    241         58.722314   0.000000
    242         58.727506   0.000000
    243         59.020304   0.000000
    244         59.032437   0.000000
    245         59.391339   0.000000
    246         59.393992   0.000000
    247         59.698784   0.000000
    248         59.701191   0.000000
    249         59.908557   0.000000
    250         59.913750   0.000000
    251         60.263133   0.000000
    252         60.265021   0.000000
    253         60.736027   0.000000
    254         60.736801   0.000000
    255         60.885947   0.000000
    256         60.887380   0.000000
    257         62.354245   0.000000
    258         62.361350   0.000000
    259         62.371040   0.000000
    260         62.373052   0.000000
    261         62.562771   0.000000
    262         62.563427   0.000000
    263         62.669162   0.000000
    264         62.669900   0.000000
    265         62.886132   0.000000
    266         62.891442   0.000000
    267         63.231218   0.000000
    268         63.231886   0.000000
    269         63.400795   0.000000
    270         63.403048   0.000000
    271         63.418903   0.000000
    272         63.422427   0.000000
    273         63.634074   0.000000
    274         63.634723   0.000000
    275         63.778984   0.000000
    276         63.779523   0.000000
    277         64.132796   0.000000
    278         64.136562   0.000000
    279         66.554193   0.000000
    280         66.555007   0.000000
    281         66.708646   0.000000
    282         66.710957   0.000000
    283         66.983342   0.000000
    284         66.983928   0.000000
    285         67.253632   0.000000
    286         67.256880   0.000000
    287         67.638088   0.000000
    288         67.640159   0.000000
    289         67.743916   0.000000
    290         67.745519   0.000000
    291         67.803010   0.000000
    292         67.804126   0.000000
    293         67.948838   0.000000
    294         67.949167   0.000000
    295         68.412587   0.000000
    296         68.412942   0.000000
    297         68.552034   0.000000
    298         68.555637   0.000000
    299         68.557186   0.000000
    300         68.560444   0.000000
    301         68.705447   0.000000
    302         68.705806   0.000000
    303         68.901836   0.000000
    304         68.902859   0.000000
    305         68.958110   0.000000
    306         68.959627   0.000000
    307         69.390680   0.000000
    308         69.393463   0.000000
    309         70.245833   0.000000
    310         70.246611   0.000000
    311         70.434517   0.000000
    312         70.436132   0.000000
    313         70.609640   0.000000
    314         70.610536   0.000000
    315         70.879491   0.000000
    316         70.883135   0.000000
    317         70.998124   0.000000
    318         71.002200   0.000000
    319         71.019926   0.000000
    320         71.019978   0.000000
    321         72.649579   0.000000
    322         72.654829   0.000000
    323         72.663234   0.000000
    324         72.665973   0.000000
    325         72.834398   0.000000
    326         72.836135   0.000000
    327         73.875985   0.000000
    328         73.877292   0.000000
    329         74.245073   0.000000
    330         74.246169   0.000000
    331         74.261578   0.000000
    332         74.264159   0.000000
    333         75.269317   0.000000
    334         75.270683   0.000000
    335         75.325522   0.000000
    336         75.326227   0.000000
    337         75.549037   0.000000
    338         75.550743   0.000000
    339         75.986293   0.000000
    340         75.986857   0.000000
    341         77.235658   0.000000
    342         77.240957   0.000000
    343         77.367365   0.000000
    344         77.369880   0.000000
    345         77.385773   0.000000
    346         77.385893   0.000000
    347         77.529942   0.000000
    348         77.534538   0.000000
    349         77.577177   0.000000
    350         77.579088   0.000000
    351         77.970626   0.000000
    352         77.973675   0.000000
    353         78.136947   0.000000
    354         78.143474   0.000000
    355         78.512870   0.000000
    356         78.515478   0.000000
    357         78.526918   0.000000
    358         78.529351   0.000000
    359         79.242935   0.000000
    360         79.243368   0.000000
    361         79.246731   0.000000
    362         79.246831   0.000000
    363         79.290151   0.000000
    364         79.291829   0.000000
    365         80.576553   0.000000
    366         80.579170   0.000000
    367         81.176694   0.000000
    368         81.183528   0.000000
    369         81.226833   0.000000
    370         81.229213   0.000000
    371         81.334877   0.000000
    372         81.336941   0.000000
    373         81.954089   0.000000
    374         81.955847   0.000000
    375         82.630243   0.000000
    376         82.648307   0.000000
    377         82.853572   0.000000
    378         82.855835   0.000000
    379         83.382555   0.000000
    380         83.397537   0.000000